ITEM: TIMESTEP
0
ITEM: NUMBER OF ATOMS
816
ITEM: BOX BOUNDS xy xz yz pp pp pp
-2.0452444000000000e+01 3.0679300300000001e+01 -1.0226222000000000e+01
-1.4462003700000000e+01 2.8924478499999999e+01 -1.0226222000000000e+01
0.0000000000000000e+00 2.5049470899999999e+01 -1.4462003700000000e+01
ITEM: ATOMS element xs ys zs 
Zn 0.25 0.125 0.375 
Zn 0.25 0.125 0.875 
Zn 0.25 0.625 0.375 
Zn 0.25 0.625 0.875 
Zn 0.75 0.125 0.375 
Zn 0.75 0.125 0.875 
Zn 0.75 0.625 0.375 
Zn 0.75 0.625 0.875 
Zn 0.25 0.375 0.125 
Zn 0.25 0.375 0.625 
Zn 0.25 0.875 0.125 
Zn 0.25 0.875 0.625 
Zn 0.75 0.375 0.125 
Zn 0.75 0.375 0.625 
Zn 0.75 0.875 0.125 
Zn 0.75 0.875 0.625 
Zn 0.375 0.25 0.125 
Zn 0.375 0.25 0.625 
Zn 0.375 0.75 0.125 
Zn 0.375 0.75 0.625 
Zn 0.875 0.25 0.125 
Zn 0.875 0.25 0.625 
Zn 0.875 0.75 0.125 
Zn 0.875 0.75 0.625 
Zn 0.125 0.375 0.25 
Zn 0.125 0.375 0.75 
Zn 0.125 0.875 0.25 
Zn 0.125 0.875 0.75 
Zn 0.625 0.375 0.25 
Zn 0.625 0.375 0.75 
Zn 0.625 0.875 0.25 
Zn 0.625 0.875 0.75 
Zn 0.125 0.25 0.375 
Zn 0.125 0.25 0.875 
Zn 0.125 0.75 0.375 
Zn 0.125 0.75 0.875 
Zn 0.625 0.25 0.375 
Zn 0.625 0.25 0.875 
Zn 0.625 0.75 0.375 
Zn 0.625 0.75 0.875 
Zn 0.375 0.125 0.25 
Zn 0.375 0.125 0.75 
Zn 0.375 0.625 0.25 
Zn 0.375 0.625 0.75 
Zn 0.875 0.125 0.25 
Zn 0.875 0.125 0.75 
Zn 0.875 0.625 0.25 
Zn 0.875 0.625 0.75 
C 0.196473 0.500473 0.303909 
N 0.158159 0.454912 0.295113 
N 0.202726 0.545257 0.340828 
C 0.13909 0.4719 0.328407 
C 0.166238 0.526941 0.356262 
H 0.219521 0.501031 0.283691 
H 0.162149 0.55417 0.385803 
H 0.10772 0.443819 0.329964 
C 0.196473 0.500473 0.803909 
N 0.158159 0.454912 0.795113 
N 0.202726 0.545257 0.840828 
C 0.13909 0.4719 0.828407 
C 0.166238 0.526941 0.856262 
H 0.219521 0.501031 0.783691 
H 0.162149 0.55417 0.885803 
H 0.10772 0.443819 0.829964 
C 0.196473 0.000472681 0.303909 
N 0.158159 0.954912 0.295113 
N 0.202726 0.0452565 0.340828 
C 0.13909 0.9719 0.328407 
C 0.166238 0.0269405 0.356262 
H 0.219521 0.00103066 0.283691 
H 0.162149 0.0541703 0.385803 
H 0.10772 0.943819 0.329964 
C 0.196473 0.000472697 0.803909 
N 0.158159 0.954912 0.795113 
N 0.202726 0.0452566 0.840828 
C 0.13909 0.9719 0.828407 
C 0.166238 0.0269405 0.856262 
H 0.219521 0.0010307 0.783691 
H 0.162149 0.0541703 0.885803 
H 0.10772 0.943819 0.829964 
C 0.696473 0.500473 0.303909 
N 0.658159 0.454912 0.295113 
N 0.702726 0.545257 0.340828 
C 0.63909 0.4719 0.328407 
C 0.666238 0.526941 0.356262 
H 0.719521 0.501031 0.283691 
H 0.662149 0.55417 0.385803 
H 0.60772 0.443819 0.329964 
C 0.696473 0.500473 0.803909 
N 0.658159 0.454912 0.795113 
N 0.702726 0.545257 0.840828 
C 0.63909 0.4719 0.828407 
C 0.666238 0.526941 0.856262 
H 0.719521 0.501031 0.783691 
H 0.662149 0.55417 0.885803 
H 0.60772 0.443819 0.829964 
C 0.696473 0.000472681 0.303909 
N 0.658159 0.954912 0.295113 
N 0.702726 0.0452565 0.340828 
C 0.63909 0.9719 0.328407 
C 0.666238 0.0269405 0.356262 
H 0.719521 0.00103066 0.283691 
H 0.662149 0.0541703 0.385803 
H 0.60772 0.943819 0.329964 
C 0.696473 0.000472697 0.803909 
N 0.658159 0.954912 0.795113 
N 0.702726 0.0452566 0.840828 
C 0.63909 0.9719 0.828407 
C 0.666238 0.0269405 0.856262 
H 0.719521 0.0010307 0.783691 
H 0.662149 0.0541703 0.885803 
H 0.60772 0.943819 0.829964 
C 0.196458 0.392723 0.195999 
N 0.159895 0.363219 0.204987 
N 0.204528 0.36206 0.159279 
C 0.143944 0.310869 0.172043 
C 0.17113 0.310175 0.144203 
H 0.21694 0.435966 0.215919 
H 0.169038 0.27656 0.114883 
H 0.114532 0.277961 0.170708 
C 0.196458 0.392723 0.695999 
N 0.159895 0.363219 0.704987 
N 0.204528 0.36206 0.659279 
C 0.143944 0.310869 0.672043 
C 0.17113 0.310175 0.644203 
H 0.21694 0.435966 0.71592 
H 0.169038 0.27656 0.614883 
H 0.114532 0.277961 0.670708 
C 0.196458 0.892723 0.195999 
N 0.159895 0.863218 0.204987 
N 0.204528 0.86206 0.159279 
C 0.143944 0.810869 0.172043 
C 0.17113 0.810175 0.144203 
H 0.21694 0.935966 0.215919 
H 0.169038 0.77656 0.114883 
H 0.114532 0.777961 0.170708 
C 0.196458 0.892723 0.695999 
N 0.159895 0.863219 0.704987 
N 0.204528 0.86206 0.659279 
C 0.143944 0.810869 0.672043 
C 0.17113 0.810175 0.644203 
H 0.21694 0.935966 0.71592 
H 0.169038 0.77656 0.614883 
H 0.114532 0.777961 0.670708 
C 0.696457 0.392723 0.195999 
N 0.659895 0.363219 0.204987 
N 0.704528 0.36206 0.159279 
C 0.643937 0.310869 0.172043 
C 0.67113 0.310175 0.144203 
H 0.71694 0.435966 0.215919 
H 0.669038 0.27656 0.114883 
H 0.614532 0.277961 0.170708 
C 0.696457 0.392723 0.695999 
N 0.659895 0.363219 0.704987 
N 0.704528 0.36206 0.659279 
C 0.643937 0.310869 0.672043 
C 0.67113 0.310175 0.644203 
H 0.71694 0.435966 0.71592 
H 0.669038 0.27656 0.614883 
H 0.614532 0.277961 0.670708 
C 0.696457 0.892723 0.195999 
N 0.659895 0.863218 0.204987 
N 0.704528 0.86206 0.159279 
C 0.643937 0.810869 0.172043 
C 0.67113 0.810175 0.144203 
H 0.71694 0.935966 0.215919 
H 0.669038 0.77656 0.114883 
H 0.614532 0.777961 0.170708 
C 0.696457 0.892723 0.695999 
N 0.659895 0.863219 0.704987 
N 0.704528 0.86206 0.659279 
C 0.643937 0.810869 0.672043 
C 0.67113 0.810175 0.644203 
H 0.71694 0.935966 0.71592 
H 0.669038 0.77656 0.614883 
H 0.614532 0.777961 0.670708 
C 0.303542 0.107459 0.304008 
N 0.341766 0.13697 0.296669 
N 0.297203 0.138131 0.342461 
C 0.3607 0.189345 0.332588 
C 0.33355 0.190049 0.360481 
H 0.280599 0.0641766 0.281616 
H 0.33754 0.223688 0.391693 
H 0.391965 0.222266 0.335777 
C 0.303542 0.107459 0.804009 
N 0.341766 0.13697 0.796669 
N 0.297203 0.13813 0.842461 
C 0.3607 0.189345 0.832588 
C 0.33355 0.190049 0.860481 
H 0.280599 0.0641766 0.781616 
H 0.33754 0.223688 0.891693 
H 0.391965 0.222266 0.835777 
C 0.303542 0.607459 0.304008 
N 0.341766 0.63697 0.296669 
N 0.297203 0.63813 0.342461 
C 0.3607 0.689345 0.332588 
C 0.33355 0.690049 0.360481 
H 0.280599 0.564177 0.281616 
H 0.33754 0.723688 0.391693 
H 0.391965 0.722266 0.335777 
C 0.303542 0.607459 0.804009 
N 0.341766 0.63697 0.796669 
N 0.297203 0.63813 0.842461 
C 0.3607 0.689345 0.832588 
C 0.33355 0.690049 0.860481 
H 0.280599 0.564177 0.781616 
H 0.33754 0.723688 0.891693 
H 0.391965 0.722266 0.835777 
C 0.803542 0.107459 0.304008 
N 0.841766 0.13697 0.296669 
N 0.797203 0.138131 0.342461 
C 0.8607 0.189345 0.332588 
C 0.83355 0.190049 0.360481 
H 0.780599 0.0641766 0.281616 
H 0.83754 0.223688 0.391693 
H 0.891965 0.222266 0.335777 
C 0.803542 0.107459 0.804009 
N 0.841766 0.13697 0.796669 
N 0.797203 0.13813 0.842461 
C 0.8607 0.189345 0.832588 
C 0.83355 0.190049 0.860481 
H 0.780599 0.0641766 0.781616 
H 0.83754 0.223688 0.891693 
H 0.891965 0.222266 0.835777 
C 0.803542 0.607459 0.304008 
N 0.841766 0.63697 0.296669 
N 0.797203 0.63813 0.342461 
C 0.8607 0.689345 0.332588 
C 0.83355 0.690049 0.360481 
H 0.780599 0.564177 0.281616 
H 0.83754 0.723688 0.391693 
H 0.891965 0.722266 0.335777 
C 0.803542 0.607459 0.804009 
N 0.841766 0.63697 0.796669 
N 0.797203 0.63813 0.842461 
C 0.8607 0.689345 0.832588 
C 0.83355 0.690049 0.860481 
H 0.780599 0.564177 0.781616 
H 0.83754 0.723688 0.891693 
H 0.891965 0.722266 0.835777 
C 0.30345 0.999527 0.19603 
N 0.340187 0.0450897 0.20327 
N 0.29557 0.954742 0.157478 
C 0.356483 0.028107 0.167191 
C 0.329298 0.973067 0.139297 
H 0.2827 0.998971 0.218552 
H 0.331597 0.94584 0.107971 
H 0.386107 0.056189 0.163887 
C 0.30345 0.999527 0.69603 
N 0.340187 0.0450897 0.70327 
N 0.29557 0.954742 0.657478 
C 0.356483 0.0281069 0.667191 
C 0.329298 0.973067 0.639297 
H 0.2827 0.998971 0.718552 
H 0.331597 0.94584 0.607971 
H 0.386107 0.056189 0.663887 
C 0.30345 0.499527 0.19603 
N 0.340187 0.54509 0.20327 
N 0.29557 0.454742 0.157478 
C 0.356483 0.528107 0.167191 
C 0.329298 0.473067 0.139297 
H 0.2827 0.498971 0.218552 
H 0.331597 0.44584 0.107971 
H 0.386107 0.556189 0.163887 
C 0.30345 0.499527 0.69603 
N 0.340187 0.54509 0.70327 
N 0.29557 0.454742 0.657478 
C 0.356483 0.528107 0.667191 
C 0.329298 0.473067 0.639297 
H 0.2827 0.498971 0.718552 
H 0.331597 0.44584 0.607971 
H 0.386107 0.556189 0.663887 
C 0.80345 0.999527 0.19603 
N 0.840187 0.0450897 0.20327 
N 0.79557 0.954742 0.157478 
C 0.856483 0.028107 0.167191 
C 0.829298 0.973067 0.139297 
H 0.7827 0.998971 0.218552 
H 0.831597 0.94584 0.107971 
H 0.886107 0.056189 0.163887 
C 0.80345 0.999527 0.69603 
N 0.840187 0.0450897 0.70327 
N 0.79557 0.954742 0.657478 
C 0.856483 0.0281069 0.667191 
C 0.829298 0.973067 0.639297 
H 0.7827 0.998971 0.718552 
H 0.831597 0.94584 0.607971 
H 0.886107 0.056189 0.663887 
C 0.80345 0.499527 0.19603 
N 0.840187 0.54509 0.20327 
N 0.79557 0.454742 0.157478 
C 0.856483 0.528107 0.167191 
C 0.829298 0.473067 0.139297 
H 0.7827 0.498971 0.218552 
H 0.831597 0.44584 0.107971 
H 0.886107 0.556189 0.163887 
C 0.80345 0.499527 0.69603 
N 0.840187 0.54509 0.70327 
N 0.79557 0.454742 0.657478 
C 0.856483 0.528107 0.667191 
C 0.829298 0.473067 0.639297 
H 0.7827 0.498971 0.718552 
H 0.831597 0.44584 0.607971 
H 0.886107 0.556189 0.663887 
C 0.303336 0.195929 0.499527 
N 0.34175 0.204826 0.54509 
N 0.29716 0.159105 0.454742 
C 0.360971 0.171693 0.528091 
C 0.333809 0.14383 0.473061 
H 0.280158 0.21601 0.498978 
H 0.337991 0.114389 0.445824 
H 0.392447 0.170249 0.556168 
C 0.303336 0.195929 0.999527 
N 0.34175 0.204826 0.0450897 
N 0.29716 0.159105 0.954742 
C 0.360971 0.171693 0.0280914 
C 0.333809 0.14383 0.973061 
H 0.280158 0.21601 0.998978 
H 0.337991 0.114389 0.945824 
H 0.392447 0.170249 0.0561676 
C 0.303336 0.695929 0.499527 
N 0.34175 0.704826 0.54509 
N 0.29716 0.659105 0.454742 
C 0.360971 0.671693 0.528091 
C 0.333809 0.64383 0.473061 
H 0.280158 0.71601 0.498978 
H 0.337991 0.614389 0.445824 
H 0.392447 0.670249 0.556168 
C 0.303336 0.695929 0.999527 
N 0.34175 0.704826 0.0450897 
N 0.29716 0.659105 0.954742 
C 0.360971 0.671693 0.0280914 
C 0.333809 0.64383 0.973061 
H 0.280158 0.71601 0.998978 
H 0.337991 0.614389 0.945824 
H 0.392447 0.670249 0.0561676 
C 0.803336 0.195929 0.499527 
N 0.84175 0.204826 0.54509 
N 0.79716 0.159105 0.454742 
C 0.860971 0.171693 0.528091 
C 0.833809 0.14383 0.473061 
H 0.780158 0.21601 0.498978 
H 0.837991 0.114389 0.445824 
H 0.892447 0.170249 0.556168 
C 0.803336 0.195929 0.999527 
N 0.84175 0.204826 0.0450897 
N 0.79716 0.159105 0.954742 
C 0.860971 0.171693 0.0280914 
C 0.833809 0.14383 0.973061 
H 0.780158 0.21601 0.998978 
H 0.837991 0.114389 0.945824 
H 0.892447 0.170249 0.0561676 
C 0.803336 0.695929 0.499527 
N 0.84175 0.704826 0.54509 
N 0.79716 0.659105 0.454742 
C 0.860971 0.671693 0.528091 
C 0.833809 0.64383 0.473061 
H 0.780158 0.71601 0.498978 
H 0.837991 0.614389 0.445824 
H 0.892447 0.670249 0.556168 
C 0.803336 0.695929 0.999527 
N 0.84175 0.704826 0.0450897 
N 0.79716 0.659105 0.954742 
C 0.860971 0.671693 0.0280914 
C 0.833809 0.64383 0.973061 
H 0.780158 0.71601 0.998978 
H 0.837991 0.614389 0.945824 
H 0.892447 0.670249 0.0561676 
C 0.499527 0.303398 0.19593 
N 0.54509 0.341392 0.204399 
N 0.454742 0.296859 0.158699 
C 0.528106 0.359931 0.170547 
C 0.473082 0.332808 0.142708 
H 0.498972 0.280802 0.216614 
H 0.445849 0.336572 0.112823 
H 0.5562 0.390962 0.168632 
C 0.499527 0.303398 0.69593 
N 0.54509 0.341392 0.704399 
N 0.454742 0.296859 0.658699 
C 0.528106 0.359931 0.670547 
C 0.473082 0.332808 0.642708 
H 0.498972 0.280802 0.716614 
H 0.445849 0.336572 0.612824 
H 0.5562 0.390962 0.668632 
C 0.499527 0.803398 0.19593 
N 0.54509 0.841392 0.204399 
N 0.454742 0.796859 0.158699 
C 0.528106 0.859931 0.170547 
C 0.473082 0.832808 0.142708 
H 0.498972 0.780802 0.216614 
H 0.445849 0.836572 0.112823 
H 0.5562 0.890962 0.168632 
C 0.499527 0.803398 0.69593 
N 0.54509 0.841392 0.704399 
N 0.454742 0.796859 0.658699 
C 0.528106 0.859931 0.670547 
C 0.473082 0.832808 0.642708 
H 0.498972 0.780802 0.716614 
H 0.445849 0.836572 0.612824 
H 0.5562 0.890962 0.668632 
C 0.999527 0.303398 0.19593 
N 0.0450901 0.341392 0.204399 
N 0.954742 0.296859 0.158699 
C 0.0281061 0.359931 0.170547 
C 0.973082 0.332808 0.142708 
H 0.998972 0.280802 0.216614 
H 0.945849 0.336572 0.112823 
H 0.0561996 0.390962 0.168632 
C 0.999527 0.303398 0.69593 
N 0.0450901 0.341392 0.704399 
N 0.954742 0.296859 0.658699 
C 0.0281061 0.359931 0.670547 
C 0.973082 0.332808 0.642708 
H 0.998972 0.280802 0.716614 
H 0.945849 0.336572 0.612824 
H 0.0561996 0.390962 0.668632 
C 0.999527 0.803398 0.19593 
N 0.0450901 0.841392 0.204399 
N 0.954742 0.796859 0.158699 
C 0.0281061 0.859931 0.170547 
C 0.973082 0.832808 0.142708 
H 0.998972 0.780802 0.216614 
H 0.945849 0.836572 0.112823 
H 0.0561996 0.890962 0.168632 
C 0.999527 0.803398 0.69593 
N 0.0450901 0.841392 0.704399 
N 0.954742 0.796859 0.658699 
C 0.0281061 0.859931 0.670547 
C 0.973082 0.832808 0.642708 
H 0.998972 0.780802 0.716614 
H 0.945849 0.836572 0.612824 
H 0.0561996 0.890962 0.668632 
C 0.196581 0.304033 0.000473024 
N 0.159637 0.296608 0.95491 
N 0.204248 0.342363 0.0452728 
C 0.142988 0.332336 0.971909 
C 0.170156 0.360205 0.026947 
H 0.217629 0.2818 0.00102234 
H 0.167631 0.391317 0.0541763 
H 0.113136 0.335428 0.943832 
C 0.196581 0.304033 0.500473 
N 0.159637 0.296608 0.45491 
N 0.204248 0.342363 0.545273 
C 0.142988 0.332336 0.471909 
C 0.170156 0.360205 0.526947 
H 0.217629 0.2818 0.501022 
H 0.167631 0.391317 0.554176 
H 0.113136 0.335428 0.443832 
C 0.196581 0.804033 0.000473024 
N 0.159637 0.796608 0.95491 
N 0.204248 0.842363 0.0452728 
C 0.142988 0.832336 0.971909 
C 0.170156 0.860205 0.026947 
H 0.217629 0.781801 0.00102234 
H 0.167631 0.891317 0.0541763 
H 0.113136 0.835427 0.943832 
C 0.196581 0.804033 0.500473 
N 0.159637 0.796608 0.45491 
N 0.204248 0.842363 0.545273 
C 0.142988 0.832336 0.471909 
C 0.170156 0.860205 0.526947 
H 0.217629 0.781801 0.501022 
H 0.167631 0.891317 0.554176 
H 0.113136 0.835428 0.443832 
C 0.696581 0.304033 0.000473024 
N 0.659637 0.296608 0.95491 
N 0.704248 0.342363 0.0452728 
C 0.642988 0.332336 0.971909 
C 0.670156 0.360205 0.026947 
H 0.717629 0.2818 0.00102234 
H 0.667631 0.391317 0.0541763 
H 0.613136 0.335428 0.943832 
C 0.696581 0.304033 0.500473 
N 0.659637 0.296608 0.45491 
N 0.704248 0.342363 0.545273 
C 0.642988 0.332336 0.471909 
C 0.670156 0.360205 0.526947 
H 0.717629 0.2818 0.501022 
H 0.667631 0.391317 0.554176 
H 0.613136 0.335428 0.443832 
C 0.696581 0.804033 0.000473024 
N 0.659637 0.796608 0.95491 
N 0.704248 0.842363 0.0452728 
C 0.642988 0.832336 0.971909 
C 0.670156 0.860205 0.026947 
H 0.717629 0.781801 0.00102234 
H 0.667631 0.891317 0.0541763 
H 0.613136 0.835427 0.943832 
C 0.696581 0.804033 0.500473 
N 0.659637 0.796608 0.45491 
N 0.704248 0.842363 0.545273 
C 0.642988 0.832336 0.471909 
C 0.670156 0.860205 0.526947 
H 0.717629 0.781801 0.501022 
H 0.667631 0.891317 0.554176 
H 0.613136 0.835428 0.443832 
C 0.392485 0.196608 0.196136 
N 0.36296 0.15843 0.203506 
N 0.361832 0.202972 0.1577 
C 0.310594 0.139551 0.167633 
C 0.309899 0.166688 0.139732 
H 0.435769 0.219499 0.218483 
H 0.276271 0.162744 0.108543 
H 0.277658 0.108331 0.164482 
C 0.392485 0.196608 0.696137 
N 0.36296 0.15843 0.703506 
N 0.361832 0.202972 0.6577 
C 0.310594 0.139551 0.667633 
C 0.309899 0.166688 0.639732 
H 0.435769 0.219499 0.718483 
H 0.276271 0.162744 0.608543 
H 0.277658 0.108331 0.664482 
C 0.392485 0.696608 0.196136 
N 0.36296 0.65843 0.203506 
N 0.361832 0.702972 0.1577 
C 0.310594 0.639551 0.167633 
C 0.309899 0.666688 0.139732 
H 0.435769 0.719499 0.218483 
H 0.276271 0.662744 0.108543 
H 0.277658 0.608331 0.164482 
C 0.392485 0.696608 0.696137 
N 0.36296 0.65843 0.703506 
N 0.361832 0.702972 0.6577 
C 0.310594 0.639551 0.667633 
C 0.309899 0.666688 0.639732 
H 0.435769 0.719499 0.718483 
H 0.276271 0.662744 0.608543 
H 0.277658 0.608331 0.664482 
C 0.892485 0.196608 0.196136 
N 0.86296 0.15843 0.203506 
N 0.861832 0.202972 0.1577 
C 0.810594 0.139551 0.167633 
C 0.809899 0.166688 0.139732 
H 0.935769 0.219499 0.218483 
H 0.776271 0.162744 0.108543 
H 0.777658 0.108331 0.164482 
C 0.892485 0.196608 0.696137 
N 0.86296 0.15843 0.703506 
N 0.861832 0.202972 0.6577 
C 0.810594 0.139551 0.667633 
C 0.809899 0.166688 0.639732 
H 0.935769 0.219499 0.718483 
H 0.776271 0.162744 0.608543 
H 0.777658 0.108331 0.664482 
C 0.892485 0.696608 0.196136 
N 0.86296 0.65843 0.203506 
N 0.861832 0.702972 0.1577 
C 0.810594 0.639551 0.167633 
C 0.809899 0.666688 0.139732 
H 0.935769 0.719499 0.218483 
H 0.776271 0.662744 0.108543 
H 0.777658 0.608331 0.164482 
C 0.892485 0.696608 0.696137 
N 0.86296 0.65843 0.703506 
N 0.861832 0.702972 0.6577 
C 0.810594 0.639551 0.667633 
C 0.809899 0.666688 0.639732 
H 0.935769 0.719499 0.718483 
H 0.776271 0.662744 0.608543 
H 0.777658 0.608331 0.664482 
C 0.196632 0.19616 0.39257 
N 0.158317 0.203407 0.36306 
N 0.202905 0.157654 0.3619 
C 0.139269 0.167375 0.310692 
C 0.166421 0.139489 0.309982 
H 0.219679 0.218657 0.435837 
H 0.162362 0.108201 0.276352 
H 0.107912 0.164094 0.277771 
C 0.196632 0.19616 0.892571 
N 0.158317 0.203407 0.86306 
N 0.202905 0.157654 0.8619 
C 0.139269 0.167375 0.810692 
C 0.166421 0.139489 0.809982 
H 0.219679 0.218657 0.935837 
H 0.162362 0.108201 0.776352 
H 0.107912 0.164094 0.777771 
C 0.196632 0.69616 0.39257 
N 0.158317 0.703407 0.36306 
N 0.202905 0.657654 0.3619 
C 0.139269 0.667375 0.310692 
C 0.166421 0.639489 0.309982 
H 0.219679 0.718657 0.435837 
H 0.162362 0.608201 0.276352 
H 0.107912 0.664093 0.277771 
C 0.196632 0.69616 0.892571 
N 0.158317 0.703407 0.86306 
N 0.202905 0.657654 0.8619 
C 0.139269 0.667375 0.810692 
C 0.166421 0.639489 0.809982 
H 0.219679 0.718657 0.935837 
H 0.162362 0.608201 0.776352 
H 0.107912 0.664093 0.777771 
C 0.696632 0.19616 0.39257 
N 0.658317 0.203407 0.36306 
N 0.702905 0.157654 0.3619 
C 0.639269 0.167375 0.310692 
C 0.666421 0.139489 0.309982 
H 0.719679 0.218657 0.435837 
H 0.662362 0.108201 0.276352 
H 0.607912 0.164094 0.277771 
C 0.696632 0.19616 0.892571 
N 0.658317 0.203407 0.86306 
N 0.702905 0.157654 0.8619 
C 0.639269 0.167375 0.810692 
C 0.666421 0.139489 0.809982 
H 0.719679 0.218657 0.935837 
H 0.662362 0.108201 0.776352 
H 0.607912 0.164094 0.777771 
C 0.696632 0.69616 0.39257 
N 0.658317 0.703407 0.36306 
N 0.702905 0.657654 0.3619 
C 0.639269 0.667375 0.310692 
C 0.666421 0.639489 0.309982 
H 0.719679 0.718657 0.435837 
H 0.662362 0.608201 0.276352 
H 0.607912 0.664093 0.277771 
C 0.696632 0.69616 0.892571 
N 0.658317 0.703407 0.86306 
N 0.702905 0.657654 0.8619 
C 0.639269 0.667375 0.810692 
C 0.666421 0.639489 0.809982 
H 0.719679 0.718657 0.935837 
H 0.662362 0.608201 0.776352 
H 0.607912 0.664093 0.777771 
C 0.107515 0.30388 0.303413 
N 0.137032 0.295968 0.341072 
N 0.138198 0.34178 0.296516 
C 0.189436 0.330908 0.359016 
C 0.190146 0.358809 0.331886 
H 0.0642086 0.282318 0.281281 
H 0.223808 0.389397 0.335251 
H 0.222366 0.333459 0.389671 
C 0.107515 0.30388 0.803413 
N 0.137032 0.295968 0.841072 
N 0.138198 0.34178 0.796516 
C 0.189436 0.330908 0.859016 
C 0.190146 0.358809 0.831886 
H 0.0642086 0.282318 0.781281 
H 0.223808 0.389397 0.835251 
H 0.222366 0.333459 0.889671 
C 0.107515 0.80388 0.303413 
N 0.137032 0.795968 0.341072 
N 0.138198 0.84178 0.296516 
C 0.189436 0.830908 0.359016 
C 0.190146 0.858809 0.331886 
H 0.0642086 0.782318 0.281281 
H 0.223808 0.889397 0.335251 
H 0.222366 0.833459 0.389671 
C 0.107515 0.80388 0.803413 
N 0.137032 0.795968 0.841072 
N 0.138198 0.84178 0.796516 
C 0.189436 0.830908 0.859016 
C 0.190146 0.858809 0.831886 
H 0.0642086 0.782318 0.781281 
H 0.223808 0.889397 0.835251 
H 0.222366 0.833459 0.889671 
C 0.607515 0.30388 0.303413 
N 0.637032 0.295968 0.341072 
N 0.638198 0.34178 0.296516 
C 0.689436 0.330908 0.359016 
C 0.690146 0.358809 0.331886 
H 0.564209 0.282318 0.281281 
H 0.723808 0.389397 0.335251 
H 0.722366 0.333459 0.389671 
C 0.607515 0.30388 0.803413 
N 0.637032 0.295968 0.841072 
N 0.638198 0.34178 0.796516 
C 0.689436 0.330908 0.859016 
C 0.690146 0.358809 0.831886 
H 0.564209 0.282318 0.781281 
H 0.723808 0.389397 0.835251 
H 0.722366 0.333459 0.889671 
C 0.607515 0.80388 0.303413 
N 0.637032 0.795968 0.341072 
N 0.638198 0.84178 0.296516 
C 0.689436 0.830908 0.359016 
C 0.690146 0.858809 0.331886 
H 0.564209 0.782318 0.281281 
H 0.723808 0.889397 0.335251 
H 0.722366 0.833459 0.389671 
C 0.607515 0.80388 0.803413 
N 0.637032 0.795968 0.841072 
N 0.638198 0.84178 0.796516 
C 0.689436 0.830908 0.859016 
C 0.690146 0.858809 0.831886 
H 0.564209 0.782318 0.781281 
H 0.723808 0.889397 0.835251 
H 0.722366 0.833459 0.889671 
C 0.303498 0.303963 0.1073 
N 0.340288 0.295213 0.136833 
N 0.295693 0.340942 0.13797 
C 0.356683 0.328591 0.189201 
C 0.329498 0.356452 0.189888 
H 0.282672 0.283686 0.0640335 
H 0.331871 0.386048 0.223511 
H 0.386362 0.330194 0.222122 
C 0.303498 0.303963 0.6073 
N 0.340288 0.295213 0.636833 
N 0.295693 0.340942 0.63797 
C 0.356683 0.328591 0.689201 
C 0.329498 0.356452 0.689888 
H 0.282672 0.283686 0.564034 
H 0.331871 0.386048 0.723511 
H 0.386362 0.330194 0.722122 
C 0.303498 0.803963 0.1073 
N 0.340288 0.795213 0.136833 
N 0.295693 0.840942 0.13797 
C 0.356683 0.828591 0.189201 
C 0.329498 0.856452 0.189888 
H 0.282672 0.783686 0.0640335 
H 0.331871 0.886048 0.223511 
H 0.386362 0.830194 0.222122 
C 0.303498 0.803963 0.6073 
N 0.340288 0.795213 0.636833 
N 0.295693 0.840942 0.63797 
C 0.356683 0.828591 0.689201 
C 0.329498 0.856452 0.689888 
H 0.282672 0.783686 0.564034 
H 0.331871 0.886048 0.723511 
H 0.386362 0.830194 0.722122 
C 0.803498 0.303963 0.1073 
N 0.840288 0.295213 0.136833 
N 0.795693 0.340942 0.13797 
C 0.856683 0.328591 0.189201 
C 0.829498 0.356452 0.189888 
H 0.782672 0.283686 0.0640335 
H 0.831871 0.386048 0.223511 
H 0.886362 0.330194 0.222122 
C 0.803498 0.303963 0.6073 
N 0.840288 0.295213 0.636833 
N 0.795693 0.340942 0.63797 
C 0.856683 0.328591 0.689201 
C 0.829498 0.356452 0.689888 
H 0.782672 0.283686 0.564034 
H 0.831871 0.386048 0.723511 
H 0.886362 0.330194 0.722122 
C 0.803498 0.803963 0.1073 
N 0.840288 0.795213 0.136833 
N 0.795693 0.840942 0.13797 
C 0.856683 0.828591 0.189201 
C 0.829498 0.856452 0.189888 
H 0.782672 0.783686 0.0640335 
H 0.831871 0.886048 0.223511 
H 0.886362 0.830194 0.222122 
C 0.803498 0.803963 0.6073 
N 0.840288 0.795213 0.636833 
N 0.795693 0.840942 0.63797 
C 0.856683 0.828591 0.689201 
C 0.829498 0.856452 0.689888 
H 0.782672 0.783686 0.564034 
H 0.831871 0.886048 0.723511 
H 0.886362 0.830194 0.722122 
C 0.000472409 0.196402 0.303886 
N 0.954909 0.15927 0.296288 
N 0.0452554 0.203917 0.342087 
C 0.971891 0.142348 0.331757 
C 0.0269305 0.169539 0.359657 
H 0.00103103 0.217682 0.281891 
H 0.0541628 0.166833 0.390602 
H 0.943812 0.112314 0.334663 
C 0.000472375 0.196402 0.803886 
N 0.954909 0.15927 0.796288 
N 0.0452554 0.203917 0.842087 
C 0.971891 0.142348 0.831757 
C 0.0269305 0.169539 0.859657 
H 0.00103106 0.217682 0.781891 
H 0.0541628 0.166833 0.890602 
H 0.943812 0.112314 0.834663 
C 0.000472394 0.696402 0.303886 
N 0.954909 0.65927 0.296288 
N 0.0452554 0.703917 0.342087 
C 0.971891 0.642348 0.331757 
C 0.0269306 0.669539 0.359657 
H 0.00103104 0.717682 0.281891 
H 0.0541628 0.666833 0.390602 
H 0.943812 0.612314 0.334663 
C 0.000472392 0.696402 0.803886 
N 0.954909 0.65927 0.796288 
N 0.0452554 0.703917 0.842087 
C 0.971891 0.642348 0.831757 
C 0.0269305 0.669539 0.859657 
H 0.00103103 0.717682 0.781891 
H 0.0541628 0.666833 0.890602 
H 0.943812 0.612314 0.834663 
C 0.500472 0.196402 0.303886 
N 0.454909 0.15927 0.296288 
N 0.545255 0.203917 0.342087 
C 0.471891 0.142348 0.331757 
C 0.526931 0.169539 0.359657 
H 0.501031 0.217682 0.281891 
H 0.554163 0.166833 0.390602 
H 0.443812 0.112314 0.334663 
C 0.500472 0.196402 0.803886 
N 0.454909 0.15927 0.796288 
N 0.545255 0.203917 0.842087 
C 0.471891 0.142348 0.831757 
C 0.526931 0.169539 0.859657 
H 0.501031 0.217682 0.781891 
H 0.554163 0.166833 0.890602 
H 0.443812 0.112314 0.834663 
C 0.500472 0.696402 0.303886 
N 0.454909 0.65927 0.296288 
N 0.545255 0.703917 0.342087 
C 0.471891 0.642348 0.331757 
C 0.526931 0.669539 0.359657 
H 0.501031 0.717682 0.281891 
H 0.554163 0.666833 0.390602 
H 0.443812 0.612314 0.334663 
C 0.500472 0.696402 0.803886 
N 0.454909 0.65927 0.796288 
N 0.545255 0.703917 0.842087 
C 0.471891 0.642348 0.831757 
C 0.526931 0.669539 0.859657 
H 0.501031 0.717682 0.781891 
H 0.554163 0.666833 0.890602 
H 0.443812 0.612314 0.834663 
ITEM: TIMESTEP
100
ITEM: NUMBER OF ATOMS
816
ITEM: BOX BOUNDS xy xz yz pp pp pp
-2.0452444000000000e+01 3.0679300300000001e+01 -1.0226222000000000e+01
-1.4462003700000000e+01 2.8924478499999999e+01 -1.0226222000000000e+01
0.0000000000000000e+00 2.5049470899999999e+01 -1.4462003700000000e+01
ITEM: ATOMS element xs ys zs 
Zn 0.251437 0.127764 0.37571 
Zn 0.253785 0.130108 0.871812 
Zn 0.246219 0.61958 0.371385 
Zn 0.249099 0.623157 0.876449 
Zn 0.751172 0.126256 0.372166 
Zn 0.75296 0.124251 0.874614 
Zn 0.752094 0.624586 0.376086 
Zn 0.753358 0.623239 0.874626 
Zn 0.246923 0.371752 0.120426 
Zn 0.246448 0.372984 0.622032 
Zn 0.247108 0.872407 0.126696 
Zn 0.255636 0.877743 0.628842 
Zn 0.749884 0.37675 0.122165 
Zn 0.750081 0.374863 0.626856 
Zn 0.750126 0.876687 0.127728 
Zn 0.742 0.872304 0.62254 
Zn 0.375483 0.247983 0.122346 
Zn 0.374365 0.253992 0.627042 
Zn 0.377484 0.75116 0.12567 
Zn 0.376705 0.747401 0.623548 
Zn 0.868144 0.246767 0.122067 
Zn 0.868237 0.244496 0.619509 
Zn 0.869437 0.748566 0.123162 
Zn 0.872006 0.748037 0.623915 
Zn 0.124936 0.376744 0.252946 
Zn 0.118367 0.372475 0.745906 
Zn 0.122016 0.878777 0.249519 
Zn 0.120284 0.870993 0.742794 
Zn 0.630959 0.378599 0.256423 
Zn 0.623188 0.372542 0.747427 
Zn 0.627724 0.875696 0.250849 
Zn 0.627499 0.87903 0.753201 
Zn 0.127707 0.250198 0.375148 
Zn 0.125362 0.249675 0.875542 
Zn 0.123379 0.749054 0.379364 
Zn 0.122535 0.753539 0.877227 
Zn 0.628753 0.255687 0.377747 
Zn 0.620132 0.245535 0.872574 
Zn 0.628579 0.755086 0.373341 
Zn 0.624999 0.751212 0.874993 
Zn 0.375246 0.128764 0.250399 
Zn 0.377409 0.125382 0.749111 
Zn 0.373979 0.622402 0.245831 
Zn 0.379763 0.623716 0.755269 
Zn 0.87685 0.127675 0.251953 
Zn 0.877201 0.127323 0.748986 
Zn 0.874856 0.628585 0.252855 
Zn 0.874564 0.621079 0.74472 
C 0.182038 0.498998 0.307639 
N 0.153415 0.45516 0.307602 
N 0.182148 0.542504 0.336626 
C 0.129348 0.472679 0.336256 
C 0.145935 0.524094 0.352015 
H 0.207164 0.503346 0.297718 
H 0.136165 0.545986 0.371528 
H 0.105132 0.450793 0.341045 
C 0.186306 0.495948 0.809182 
N 0.146334 0.452887 0.799333 
N 0.194646 0.541878 0.846976 
C 0.12724 0.47118 0.83295 
C 0.153442 0.52373 0.85866 
H 0.206465 0.494645 0.791327 
H 0.147798 0.545319 0.88047 
H 0.101143 0.450014 0.835044 
C 0.189747 0.00225639 0.30803 
N 0.153456 0.957529 0.303008 
N 0.204853 0.0467634 0.350645 
C 0.139263 0.976848 0.33894 
C 0.174189 0.0297374 0.370953 
H 0.205042 0.00118053 0.288232 
H 0.175388 0.0480348 0.399552 
H 0.111936 0.956177 0.341105 
C 0.192686 0.999081 0.804065 
N 0.1535 0.954776 0.796043 
N 0.20469 0.0460336 0.846074 
C 0.141916 0.973877 0.835629 
C 0.169806 0.0280132 0.863418 
H 0.208721 1.00022 0.78379 
H 0.167083 0.0497663 0.8896 
H 0.12038 0.957277 0.842026 
C 0.688944 0.498885 0.309649 
N 0.649859 0.45391 0.302163 
N 0.69752 0.544343 0.347562 
C 0.633629 0.47289 0.338334 
C 0.662251 0.527831 0.365598 
H 0.708521 0.49988 0.292603 
H 0.655465 0.546081 0.387062 
H 0.610456 0.453531 0.342193 
C 0.684446 0.498309 0.807622 
N 0.64567 0.45208 0.801069 
N 0.696512 0.543359 0.849444 
C 0.633382 0.47351 0.8418 
C 0.663777 0.527791 0.870377 
H 0.702276 0.498571 0.788753 
H 0.664234 0.550064 0.899663 
H 0.608692 0.453323 0.846706 
C 0.691963 0.998479 0.309776 
N 0.654118 0.955618 0.302804 
N 0.703135 0.044702 0.348873 
C 0.635811 0.974649 0.334615 
C 0.663591 0.0267269 0.362304 
H 0.712793 0.99718 0.294199 
H 0.65917 0.047239 0.38842 
H 0.610288 0.953801 0.338825 
C 0.693892 0.000923617 0.813314 
N 0.651972 0.957246 0.801857 
N 0.704734 0.0458447 0.852075 
C 0.634412 0.97853 0.836188 
C 0.665452 0.0317598 0.866537 
H 0.711204 0.0035614 0.794211 
H 0.661976 0.0518243 0.889813 
H 0.60677 0.95823 0.838505 
C 0.191066 0.384759 0.192998 
N 0.162345 0.35671 0.209028 
N 0.203147 0.352213 0.162471 
C 0.159729 0.307993 0.189088 
C 0.183617 0.304311 0.160439 
H 0.200341 0.419124 0.202557 
H 0.184753 0.275178 0.143015 
H 0.142384 0.28358 0.193386 
C 0.186055 0.380577 0.689347 
N 0.148984 0.351171 0.698162 
N 0.200002 0.351296 0.658759 
C 0.139246 0.298905 0.668812 
C 0.168849 0.299972 0.644075 
H 0.200898 0.417701 0.703128 
H 0.166851 0.272802 0.621611 
H 0.116574 0.269991 0.666875 
C 0.186701 0.881021 0.189748 
N 0.160164 0.854311 0.209385 
N 0.194435 0.849363 0.154178 
C 0.150264 0.80327 0.18237 
C 0.170332 0.800717 0.150306 
H 0.200066 0.91728 0.201464 
H 0.166974 0.770705 0.129092 
H 0.132462 0.776436 0.184376 
C 0.190701 0.879516 0.686182 
N 0.151981 0.847246 0.691958 
N 0.205527 0.853238 0.655967 
C 0.138247 0.796216 0.657734 
C 0.170897 0.80019 0.636519 
H 0.203716 0.915492 0.703245 
H 0.171641 0.773318 0.615308 
H 0.11459 0.765857 0.651691 
C 0.696187 0.385027 0.194956 
N 0.654125 0.354619 0.198507 
N 0.708081 0.353731 0.161874 
C 0.641441 0.304414 0.168629 
C 0.672809 0.303473 0.147053 
H 0.70979 0.420899 0.207071 
H 0.670023 0.273626 0.12604 
H 0.6156 0.275594 0.161375 
C 0.686171 0.381501 0.687101 
N 0.656766 0.351021 0.701954 
N 0.694331 0.351146 0.651066 
C 0.645523 0.30055 0.673292 
C 0.665393 0.299825 0.640327 
H 0.699942 0.417997 0.703319 
H 0.660972 0.270568 0.614645 
H 0.626068 0.271053 0.674084 
C 0.696643 0.889624 0.197218 
N 0.656469 0.856815 0.200411 
N 0.708475 0.859171 0.163364 
C 0.644752 0.803964 0.169661 
C 0.674087 0.805737 0.14537 
H 0.712429 0.925638 0.213841 
H 0.672858 0.778269 0.122595 
H 0.621477 0.774245 0.167031 
C 0.693231 0.884479 0.693884 
N 0.651472 0.856107 0.697661 
N 0.697985 0.853042 0.654472 
C 0.628395 0.805165 0.655439 
C 0.654803 0.803716 0.628682 
H 0.717528 0.919274 0.717136 
H 0.644346 0.776939 0.599511 
H 0.599757 0.777668 0.647768 
C 0.315204 0.122789 0.313349 
N 0.35085 0.154983 0.304743 
N 0.303495 0.151692 0.346643 
C 0.363514 0.205049 0.334275 
C 0.336586 0.204051 0.361385 
H 0.301598 0.0844139 0.295389 
H 0.338322 0.23076 0.384151 
H 0.385636 0.233499 0.337121 