Created on  3  4 2017  0:25:58
  
         816  atoms
         960  bonds
        3440  angles
        6136  dihedrals
        4032  impropers
  
           6  atom types
           6  bond types
           9  angle types
          13  dihedral types
           8  improper types
  
     0.00000000       30.6793003      xlo xhi
     0.00000000       28.9244785      ylo yhi
     0.00000000       25.0494709      zlo zhi
    -10.2262220      -10.2262220      -14.4620037      xy xz yz
 
Masses
  
   1     65.3700027  # Zn  
   2     12.0107002  # C1  
   3     14.0067396  # N1  
   4     12.0107002  # C2  
   5      1.0079401  # H1  
   6      1.0079401  # H2  
  
Bond Coeffs
  
   1        3.7289598      1.9870000 # Zn  N1  
   2       21.1596794      1.3390000 # C1  N1  
   3       15.9131193      0.9590000 # C1  H1  
   4       17.7775993      1.3710001 # N1  C2  
   5       22.4604797      1.3460000 # C2  C2  
   6       15.9131193      0.9290000 # C2  H2  
  
Angle Coeffs
  
   1        0.4552800    109.4700012 # N1  Zn  N1  
   2        3.0351999    112.1699982 # N1  C1  N1  
   3        2.1680000    125.6600037 # N1  C1  H1  
   4        2.1680000    127.5000000 # Zn  N1  C1  
   5        1.5175999    128.0000000 # Zn  N1  C2  
   6        3.0351999    105.2399979 # C1  N1  C2  
   7        3.0351999    108.6699982 # N1  C2  C2  
   8        2.1680000    125.6600037 # N1  C2  H2  
   9        2.1680000    125.6699982 # C2  C2  H2  
  
Dihedral Coeffs
  
   1       1     0.0043360   2    180.0000000 # Zn  N1  C1  N1  
   2       1     0           1      0.0       # Zn  N1  C1  H1  
   3       1     0.0043360   2    180.0000000 # Zn  N1  C2  C2  
   4       1     0           1      0.0       # Zn  N1  C2  H2  
   5       1     0.0075446   3      0.0000000 # C1  N1  Zn  N1  
   6       1     0.2081280   2    180.0000000 # C1  N1  C2  C2  
   7       1     0.2081280   2    180.0000000 # C1  N1  C2  H2  
   8       1     0.0075446   3      0.0000000 # N1  Zn  N1  C2  
   9       1     0.2081280   2    180.0000000 # N1  C1  N1  C2  
  10       1     0.1734400   2    180.0000000 # N1  C2  C2  N1  
  11       1     0.1734400   2    180.0000000 # N1  C2  C2  H2  
  12       1     0.1734400   2    180.0000000 # C2  N1  C1  H1  
  13       1     0.1734400   2    180.0000000 # H2  C2  C2  H2  
  
Pair Coeffs
  
           1       3.41243180E-03   2.46199989                                        # Zn  Zn  
           2       2.89211166E-03   3.43099999                                        # C1  C1  
           3       1.89916790E-03   3.26099992                                        # N1  N1  
           4       2.89211166E-03   3.43099999                                        # C2  C2  
           5       1.20974390E-03   2.57100010                                        # H1  H1  
           6       1.20974390E-03   2.57100010                                        # H2  H2  
  
Atoms
  
    1   1   1  2.0000000      2.5567141     -1.8076913      9.3935518
    2   1   1  2.0000000     -2.5563974     -9.0386934     21.9182873
    3   1   1  2.0000000     -2.5563970     12.6545477      9.3935518
    4   1   1  2.0000000     -7.6695085      5.4235458     21.9182873
    5   1   1  2.0000000     17.8963642     -1.8076913      9.3935518
    6   1   1  2.0000000     12.7832527     -9.0386934     21.9182873
    7   1   1  2.0000000     12.7832546     12.6545477      9.3935518
    8   1   1  2.0000000      7.6701431      5.4235458     21.9182873
    9   1   1  2.0000000      2.5567141      9.0389290      3.1311839
   10   1   1  2.0000000     -2.5563970      1.8079271     15.6559191
   11   1   1  2.0000000     -2.5563974     23.5011673      3.1311839
   12   1   1  2.0000000     -7.6695085     16.2701645     15.6559191
   13   1   1  2.0000000     17.8963642      9.0389290      3.1311839
   14   1   1  2.0000000     12.7832537      1.8079271     15.6559191
   15   1   1  2.0000000     12.7832537     23.5011673      3.1311839
   16   1   1  2.0000000      7.6701422     16.2701645     15.6559191
   17   1   1  2.0000000      7.6699042      5.4233694      3.1311839
   18   1   1  2.0000000      2.5567932     -1.8076329     15.6559191
   19   1   1  2.0000000      2.5567937     19.8856087      3.1311839
   20   1   1  2.0000000     -2.5563173     12.6546068     15.6559191
   21   1   1  2.0000000     23.0095539      5.4233694      3.1311839
   22   1   1  2.0000000     17.8964424     -1.8076329     15.6559191
   23   1   1  2.0000000     17.8964424     19.8856087      3.1311839
   24   1   1  2.0000000     12.7833319     12.6546068     15.6559191
   25   1   1  2.0000000     -2.5564761      7.2311788      6.2623677
   26   1   1  2.0000000     -7.6695871      0.0001774     18.7871037
   27   1   1  2.0000000     -7.6695881     21.6934166      6.2623677
   28   1   1  2.0000000    -12.7826986     14.4624157     18.7871037
   29   1   1  2.0000000     12.7831736      7.2311788      6.2623677
   30   1   1  2.0000000      7.6700630      0.0001774     18.7871037
   31   1   1  2.0000000      7.6700621     21.6934166      6.2623677
   32   1   1  2.0000000      2.5569515     14.4624157     18.7871037
   33   1   1  2.0000000     -2.5564761      1.8078685      9.3935518
   34   1   1  2.0000000     -7.6695876     -5.4231334     21.9182873
   35   1   1  2.0000000     -7.6695871     16.2701073      9.3935518
   36   1   1  2.0000000    -12.7826986      9.0391064     21.9182873
   37   1   1  2.0000000     12.7831745      1.8078685      9.3935518
   38   1   1  2.0000000      7.6700630     -5.4231334     21.9182873
   39   1   1  2.0000000      7.6700630     16.2701073      9.3935518
   40   1   1  2.0000000      2.5569515      9.0391064     21.9182873
   41   1   1  2.0000000      7.6699047      0.0000589      6.2623677
   42   1   1  2.0000000      2.5567942     -7.2309427     18.7871037
   43   1   1  2.0000000      2.5567935     14.4622974      6.2623677
   44   1   1  2.0000000     -2.5563173      7.2312965     18.7871037
   45   1   1  2.0000000     23.0095539      0.0000589      6.2623677
   46   1   1  2.0000000     17.8964424     -7.2309427     18.7871037
   47   1   1  2.0000000     17.8964443     14.4622974      6.2623677
   48   1   1  2.0000000     12.7833328      7.2312965     18.7871037
   49   1   2  0.0810000     -2.1981397     10.0807743      7.6127672
   50   1   3 -0.5610000     -2.8177145      8.8901615      7.3924146
   51   1   3 -0.5610000     -2.8417919     10.8422060      8.5375595
   52   1   4 -0.1540000     -3.9169183      8.9000225      8.2264290
   53   1   4 -0.1540000     -3.9317682     10.0892143      8.9241800
   54   1   5  0.1070000     -1.2899840     10.3893042      7.1063194
   55   1   6  0.1210000     -4.6377697     10.4496002      9.6641665
   56   1   6  0.1210000     -4.6080894      8.0652962      8.2654161
   57   1   2  0.0810000     -7.3112512      2.8497725     20.1375027
   58   1   3 -0.5610000     -7.9308252      1.6591597     19.9171505
   59   1   3 -0.5610000     -7.9549031      3.6112041     21.0622959
   60   1   4 -0.1540000     -9.0300293      1.6690197     20.7511635
   61   1   4 -0.1540000     -9.0448790      2.8582125     21.4489155
   62   1   5  0.1070000     -6.4030948      3.1583033     19.6310558
   63   1   6  0.1210000     -9.7508812      3.2185984     22.1889019
   64   1   6  0.1210000     -9.7212009      0.8342943     20.7901516
   65   1   2  0.0810000      2.9149709     -4.3814654      7.6127672
   66   1   3 -0.5610000     -7.9308252     23.3523998      7.3924146
   67   1   3 -0.5610000      2.2713196     -3.6200333      8.5375595
   68   1   4 -0.1540000     -9.0300293     23.3622627      8.2264290
   69   1   4 -0.1540000      1.1813424     -4.3730259      8.9241800
   70   1   5  0.1070000      3.8231275     -4.0729346      7.1063194
   71   1   6  0.1210000      0.4753416     -4.0126395      9.6641665
   72   1   6  0.1210000     -9.7212009     22.5275364      8.2654161
   73   1   2  0.0810000     -2.1981406    -11.6124668     20.1375027
   74   1   3 -0.5610000    -13.0439358     16.1213989     19.9171505
   75   1   3 -0.5610000     -2.8417916    -10.8510351     21.0622959
   76   1   4 -0.1540000    -14.1431408     16.1312599     20.7511635
   77   1   4 -0.1540000     -3.9317684    -11.6040268     21.4489155
   78   1   5  0.1070000     -1.2899833    -11.3039360     19.6310558
   79   1   6  0.1210000     -4.6377697    -11.2436419     22.1889019
   80   1   6  0.1210000    -14.8343115     15.2965345     20.7901516
   81   1   2  0.0810000     13.1415119     10.0807743      7.6127672
   82   1   3 -0.5610000     12.5219355      8.8901615      7.3924146
   83   1   3 -0.5610000     12.4978580     10.8422060      8.5375595
   84   1   4 -0.1540000     11.4227324      8.9000225      8.2264290
   85   1   4 -0.1540000     11.4078827     10.0892143      8.9241800
   86   1   5  0.1070000     14.0496674     10.3893042      7.1063194
   87   1   6  0.1210000     10.7018805     10.4496002      9.6641665
   88   1   6  0.1210000     10.7315617      8.0652962      8.2654161
   89   1   2  0.0810000      8.0284004      2.8497725     20.1375027
   90   1   3 -0.5610000      7.4088249      1.6591597     19.9171505
   91   1   3 -0.5610000      7.3847466      3.6112041     21.0622959
   92   1   4 -0.1540000      6.3096209      1.6690197     20.7511635
   93   1   4 -0.1540000      6.2947721      2.8582125     21.4489155
   94   1   5  0.1070000      8.9365568      3.1583033     19.6310558
   95   1   6  0.1210000      5.5887690      3.2185984     22.1889019
   96   1   6  0.1210000      5.6184502      0.8342943     20.7901516
   97   1   2  0.0810000     18.2546215     -4.3814654      7.6127672
   98   1   3 -0.5610000      7.4088249     23.3523998      7.3924146
   99   1   3 -0.5610000     17.6109695     -3.6200333      8.5375595
  100   1   4 -0.1540000      6.3096218     23.3622627      8.2264290
  101   1   4 -0.1540000     16.5209942     -4.3730259      8.9241800
  102   1   5  0.1070000     19.1627789     -4.0729346      7.1063194
  103   1   6  0.1210000     15.8149910     -4.0126395      9.6641665
  104   1   6  0.1210000      5.6184506     22.5275364      8.2654161
  105   1   2  0.0810000     13.1415100    -11.6124668     20.1375027
  106   1   3 -0.5610000      2.2957144     16.1213989     19.9171505
  107   1   3 -0.5610000     12.4978580    -10.8510351     21.0622959
  108   1   4 -0.1540000      1.1965103     16.1312599     20.7511635
  109   1   4 -0.1540000     11.4078836    -11.6040268     21.4489155
  110   1   5  0.1070000     14.0496683    -11.3039360     19.6310558
  111   1   6  0.1210000     10.7018795    -11.2436419     22.1889019
  112   1   6  0.1210000      0.5053396     15.2965345     20.7901516
  113   1   2  0.0810000      0.0067790      8.5247574      4.9096751
  114   1   3 -0.5610000     -0.9051182      7.5413895      5.1348052
  115   1   3 -0.5610000      0.9434620      8.1689043      3.9898515
  116   1   4 -0.1540000     -0.5222501      6.5036316      4.3095822
  117   1   4 -0.1540000      0.6035780      6.8861723      3.6122136
  118   1   5  0.1070000     -0.0107489      9.4874678      5.4086690
  119   1   6  0.1210000      1.1829801      6.3378987      2.8777690
  120   1   6  0.1210000     -1.0744230      5.5710893      4.2761378
  121   1   2  0.0810000     -5.1063318      1.2937555     17.4344101
  122   1   3 -0.5610000     -6.0182295      0.3103876     17.6595402
  123   1   3 -0.5610000     -4.1696491      0.9379025     16.5145874
  124   1   4 -0.1540000     -5.6353612     -0.7273703     16.8343182
  125   1   4 -0.1540000     -4.5095329     -0.3448305     16.1369495
  126   1   5  0.1070000     -5.1238594      2.2564659     17.9334049
  127   1   6  0.1210000     -3.9301310     -0.8931031     15.4025040
  128   1   6  0.1210000     -6.1875343     -1.6599131     16.8008728
  129   1   2  0.0810000     -5.1063318     22.9869976      4.9096751
  130   1   3 -0.5610000     -6.0182295     22.0036278      5.1348052
  131   1   3 -0.5610000     -4.1696486     22.6311436      3.9898515
  132   1   4 -0.1540000     -5.6353607     20.9658718      4.3095822
  133   1   4 -0.1540000     -4.5095329     21.3484116      3.6122136
  134   1   5  0.1070000     -5.1238594     23.9497070      5.4086690
  135   1   6  0.1210000     -3.9301310     20.8001366      2.8777690
  136   1   6  0.1210000     -6.1875339     20.0333290      4.2761378
  137   1   2  0.0810000    -10.2194424     15.7559958     17.4344101
  138   1   3 -0.5610000    -11.1313400     14.7726269     17.6595402
  139   1   3 -0.5610000     -9.2827597     15.4001427     16.5145874
  140   1   4 -0.1540000    -10.7484722     13.7348700     16.8343182
  141   1   4 -0.1540000     -9.6226444     14.1174088     16.1369495
  142   1   5  0.1070000    -10.2369699     16.7187042     17.9334049
  143   1   6  0.1210000     -9.0432415     13.5691357     15.4025040
  144   1   6  0.1210000    -11.3006449     12.8023272     16.8008728
  145   1   2  0.0810000     15.3464279      8.5247574      4.9096751
  146   1   3 -0.5610000     14.4345322      7.5413895      5.1348052
  147   1   3 -0.5610000     16.2831135      8.1689043      3.9898515
  148   1   4 -0.1540000     14.8171654      6.5036316      4.3095822
  149   1   4 -0.1540000     15.9432278      6.8861723      3.6122136
  150   1   5  0.1070000     15.3289013      9.4874678      5.4086690
  151   1   6  0.1210000     16.5226288      6.3378987      2.8777690
  152   1   6  0.1210000     14.2652264      5.5710893      4.2761378
  153   1   2  0.0810000     10.2333164      1.2937555     17.4344101
  154   1   3 -0.5610000      9.3214207      0.3103876     17.6595402
  155   1   3 -0.5610000     11.1700020      0.9379025     16.5145874
  156   1   4 -0.1540000      9.7040539     -0.7273703     16.8343182
  157   1   4 -0.1540000     10.8301163     -0.3448305     16.1369495
  158   1   5  0.1070000     10.2157907      2.2564659     17.9334049
  159   1   6  0.1210000     11.4095192     -0.8931031     15.4025040
  160   1   6  0.1210000      9.1521149     -1.6599131     16.8008728
  161   1   2  0.0810000     10.2333174     22.9869976      4.9096751
  162   1   3 -0.5610000      9.3214216     22.0036278      5.1348052
  163   1   3 -0.5610000     11.1700010     22.6311436      3.9898515
  164   1   4 -0.1540000      9.7040548     20.9658718      4.3095822
  165   1   4 -0.1540000     10.8301172     21.3484116      3.6122136
  166   1   5  0.1070000     10.2157907     23.9497070      5.4086690
  167   1   6  0.1210000     11.4095201     20.8001366      2.8777690
  168   1   6  0.1210000      9.1521168     20.0333290      4.2761378
  169   1   2  0.0810000      5.1202064     15.7559958     17.4344101
  170   1   3 -0.5610000      4.2083106     14.7726269     17.6595402
  171   1   3 -0.5610000      6.0568900     15.4001427     16.5145874
  172   1   4 -0.1540000      4.5909438     13.7348700     16.8343182
  173   1   4 -0.1540000      5.7170057     14.1174088     16.1369495
  174   1   5  0.1070000      5.1026802     16.7187042     17.9334049
  175   1   6  0.1210000      6.2964091     13.5691357     15.4025040
  176   1   6  0.1210000      4.0390053     12.8023272     16.8008728
  177   1   2  0.0810000      5.1047053     -1.2883685      7.6152515
  178   1   3 -0.5610000      6.0506535     -0.3286417      7.4314017
  179   1   3 -0.5610000      4.2033615     -0.9573140      8.5784578
  180   1   4 -0.1540000      5.7286272      0.6668253      8.3311586
  181   1   4 -0.1540000      4.6032228      0.2837825      9.0298653
  182   1   5  0.1070000      5.0724301     -2.2164605      7.0543370
  183   1   6  0.1210000      4.0624690      0.8053856      9.8117056
  184   1   6  0.1210000      6.3185539      1.5729098      8.4110432
  185   1   2  0.0810000     -0.0084057     -8.5193701     20.1399879
  186   1   3 -0.5610000      0.9375420     -7.5596437     19.9561367
  187   1   3 -0.5610000     -0.9097490     -8.1883163     21.1031933
  188   1   4 -0.1540000      0.6155167     -6.5641761     20.8558941
  189   1   4 -0.1540000     -0.5098877     -6.9472198     21.5545998
  190   1   5  0.1070000     -0.0406814     -9.4474630     19.5790730
  191   1   6  0.1210000     -1.0506420     -6.4256167     22.3364410
  192   1   6  0.1210000      1.2054424     -5.6580930     20.9357796
  193   1   2  0.0810000     -0.0084052     13.1738720      7.6152515
  194   1   3 -0.5610000      0.9375427     14.1335974      7.4314017
  195   1   3 -0.5610000     -0.9097493     13.5049248      8.5784578
  196   1   4 -0.1540000      0.6155157     15.1290646      8.3311586
  197   1   4 -0.1540000     -0.5098875     14.7460232      9.0298653
  198   1   5  0.1070000     -0.0406809     12.2457781      7.0543370
  199   1   6  0.1210000     -1.0506420     15.2676258      9.8117056
  200   1   6  0.1210000      1.2054427     16.0351486      8.4110432
  201   1   2  0.0810000     -5.1215162      5.9428701     20.1399879
  202   1   3 -0.5610000     -4.1755691      6.9025955     19.9561367
  203   1   3 -0.5610000     -6.0228601      6.2739229     21.1031933
  204   1   4 -0.1540000     -4.4975948      7.8980627     20.8558941
  205   1   4 -0.1540000     -5.6229982      7.5150204     21.5545998
  206   1   5  0.1070000     -5.1537924      5.0147753     19.5790730
  207   1   6  0.1210000     -6.1637530      8.0366230     22.3364410
  208   1   6  0.1210000     -3.9076686      8.8041468     20.9357796
  209   1   2  0.0810000     20.4443569     -1.2883685      7.6152515
  210   1   3 -0.5610000     21.3903027     -0.3286417      7.4314017
  211   1   3 -0.5610000     19.5430126     -0.9573140      8.5784578
  212   1   4 -0.1540000     21.0682755      0.6668253      8.3311586
  213   1   4 -0.1540000     19.9428749      0.2837825      9.0298653
  214   1   5  0.1070000     20.4120789     -2.2164605      7.0543370
  215   1   6  0.1210000     19.4021187      0.8053856      9.8117056
  216   1   6  0.1210000     21.6582031      1.5729098      8.4110432
  217   1   2  0.0810000     15.3312454     -8.5193701     20.1399879
  218   1   3 -0.5610000     16.2771912     -7.5596437     19.9561367
  219   1   3 -0.5610000     14.4299011     -8.1883163     21.1031933
  220   1   4 -0.1540000     15.9551659     -6.5641761     20.8558941
  221   1   4 -0.1540000     14.8297634     -6.9472198     21.5545998
  222   1   5  0.1070000     15.2989683     -9.4474630     19.5790730
  223   1   6  0.1210000     14.2890072     -6.4256167     22.3364410
  224   1   6  0.1210000     16.5450935     -5.6580930     20.9357796
  225   1   2  0.0810000     15.3312454     13.1738720      7.6152515
  226   1   3 -0.5610000     16.2771931     14.1335974      7.4314017
  227   1   3 -0.5610000     14.4299002     13.5049248      8.5784578
  228   1   4 -0.1540000     15.9551649     15.1290646      8.3311586
  229   1   4 -0.1540000     14.8297625     14.7460232      9.0298653
  230   1   5  0.1070000     15.2989683     12.2457781      7.0543370
  231   1   6  0.1210000     14.2890091     15.2676258      9.8117056
  232   1   6  0.1210000     16.5450916     16.0351486      8.4110432
  233   1   2  0.0810000     10.2181339      5.9428701     20.1399879
  234   1   3 -0.5610000     11.1640816      6.9025955     19.9561367
  235   1   3 -0.5610000      9.3167896      6.2739229     21.1031933
  236   1   4 -0.1540000     10.8420544      7.8980627     20.8558941
  237   1   4 -0.1540000      9.7166519      7.5150204     21.5545998
  238   1   5  0.1070000     10.1858568      5.0147753     19.5790730
  239   1   6  0.1210000      9.1758976      8.0366230     22.3364410
  240   1   6  0.1210000     11.4319811      8.8041468     20.9357796
  241   1   2  0.0810000     -2.9163809     26.0758095      4.9104395
  242   1   3 -0.5610000      7.8969173     -1.6354948      5.0918050
  243   1   3 -0.5610000     -2.3059163     25.3379517      3.9447489
  244   1   4 -0.1540000      8.9394817     -1.6049311      4.1880350
  245   1   4 -0.1540000     -1.2726516     26.1309338      3.4893284
  246   1   5  0.1070000     -3.7776043     25.7340164      5.4746027
  247   1   6  0.1210000     -0.6033508     25.7964363      2.7046213
  248   1   6  0.1210000      9.5949478     -0.7448971      4.1052833
  249   1   2  0.0810000     -8.0294914     18.8448086     17.4351749
  250   1   3 -0.5610000      2.7838058     -8.8664970     17.6165409
  251   1   3 -0.5610000     -7.4190273     18.1069489     16.4694843
  252   1   4 -0.1540000      3.8263702     -8.8359337     16.7127705
  253   1   4 -0.1540000     -6.3857622     18.8999329     16.0140629
  254   1   5  0.1070000     -8.8907156     18.5030136     17.9993382
  255   1   6  0.1210000     -5.7164617     18.5654335     15.2293568
  256   1   6  0.1210000      4.4818368     -7.9758997     16.6300182
  257   1   2  0.0810000      2.1967301     11.6135702      4.9104395
  258   1   3 -0.5610000      2.7838061     12.8267441      5.0918050
  259   1   3 -0.5610000      2.8071947     10.8757114      3.9447489
  260   1   4 -0.1540000      3.8263702     12.8573074      4.1880350
  261   1   4 -0.1540000      3.8404598     11.6686954      3.4893284
  262   1   5  0.1070000      1.3355062     11.2717781      5.4746027
  263   1   6  0.1210000      4.5097604     11.3341961      2.7046213
  264   1   6  0.1210000      4.4818373     13.7173424      4.1052833
  265   1   2  0.0810000     -2.9163809      4.3825684     17.4351749
  266   1   3 -0.5610000     -2.3293052      5.5957422     17.6165409
  267   1   3 -0.5610000     -2.3059163      3.6447096     16.4694843
  268   1   4 -0.1540000     -1.2867408      5.6263056     16.7127705
  269   1   4 -0.1540000     -1.2726507      4.4376936     16.0140629
  270   1   5  0.1070000     -3.7776051      4.0407753     17.9993382
  271   1   6  0.1210000     -0.6033506      4.1031942     15.2293568
  272   1   6  0.1210000     -0.6312742      6.4863405     16.6300182
  273   1   2  0.0810000     12.4232683     26.0758095      4.9104395
  274   1   3 -0.5610000     23.2365685     -1.6354948      5.0918050
  275   1   3 -0.5610000     13.0337353     25.3379517      3.9447489
  276   1   4 -0.1540000     24.2791328     -1.6049311      4.1880350
  277   1   4 -0.1540000     14.0669975     26.1309338      3.4893284
  278   1   5  0.1070000     11.5620470     25.7340164      5.4746027
  279   1   6  0.1210000     14.7362995     25.7964363      2.7046213
  280   1   6  0.1210000     24.9345989     -0.7448971      4.1052833
  281   1   2  0.0810000      7.3101573     18.8448086     17.4351749
  282   1   3 -0.5610000     18.1234570     -8.8664970     17.6165409
  283   1   3 -0.5610000      7.9206238     18.1069489     16.4694843
  284   1   4 -0.1540000     19.1660233     -8.8359337     16.7127705
  285   1   4 -0.1540000      8.9538870     18.8999329     16.0140629
  286   1   5  0.1070000      6.4489355     18.5030136     17.9993382
  287   1   6  0.1210000      9.6231880     18.5654335     15.2293568
  288   1   6  0.1210000     19.8214874     -7.9758997     16.6300182
  289   1   2  0.0810000     17.5363789     11.6135702      4.9104395
  290   1   3 -0.5610000     18.1234570     12.8267441      5.0918050
  291   1   3 -0.5610000     18.1468449     10.8757114      3.9447489
  292   1   4 -0.1540000     19.1660213     12.8573074      4.1880350
  293   1   4 -0.1540000     19.1801090     11.6686954      3.4893284
  294   1   5  0.1070000     16.6751575     11.2717781      5.4746027
  295   1   6  0.1210000     19.8494091     11.3341961      2.7046213
  296   1   6  0.1210000     19.8214874     13.7173424      4.1052833
  297   1   2  0.0810000     12.4232674      4.3825684     17.4351749
  298   1   3 -0.5610000     13.0103455      5.5957422     17.6165409
  299   1   3 -0.5610000     13.0337343      3.6447096     16.4694843
  300   1   4 -0.1540000     14.0529108      5.6263056     16.7127705
  301   1   4 -0.1540000     14.0669985      4.4376936     16.0140629
  302   1   5  0.1070000     11.5620470      4.0407753     17.9993382
  303   1   6  0.1210000     14.7362995      4.1031942     15.2293568
  304   1   6  0.1210000     14.7083759      6.4863405     16.6300182
  305   1   2  0.0810000      2.1942410     -1.5570173     12.5128860
  306   1   3 -0.5610000      2.8158364     -1.9585981     13.6542091
  307   1   3 -0.5610000      2.8393145     -1.9744687     11.3910570
  308   1   4 -0.1540000      3.9181871     -2.6711411     13.2284107
  309   1   4 -0.1540000      3.9325686     -2.6812072     11.8499184
  310   1   5  0.1070000      1.2834358     -0.9682436     12.4991264
  311   1   6  0.1210000      4.6404581     -3.1388514     11.1676474
  312   1   6  0.1210000      4.6115108     -3.1189413     13.9317045
  313   1   2  0.0810000     -2.9188700     -8.7880192     25.0376225
  314   1   3 -0.5610000      7.9289474      5.2724037      1.1294737
  315   1   3 -0.5610000     -2.2737966     -9.2054710     23.9157925
  316   1   4 -0.1540000      9.0312986      4.5598607      0.7036754
  317   1   4 -0.1540000     -1.1805420     -9.9122086     24.3746529
  318   1   5  0.1070000     -3.8296747     -8.1992455     25.0238609
  319   1   6  0.1210000     -0.4726524    -10.3698521     23.6923828
  320   1   6  0.1210000      9.7246218      4.1120601      1.4069687
  321   1   2  0.0810000     -2.9188700     12.9052219     12.5128860
  322   1   3 -0.5610000     -2.2972746     12.5036402     13.6542091
  323   1   3 -0.5610000     -2.2737966     12.4877710     11.3910570
  324   1   4 -0.1540000     -1.1949239     11.7910976     13.2284107
  325   1   4 -0.1540000     -1.1805425     11.7810326     11.8499184
  326   1   5  0.1070000     -3.8296747     13.4939966     12.4991264
  327   1   6  0.1210000     -0.4726529     11.3233871     11.1676474
  328   1   6  0.1210000     -0.5016003     11.3432970     13.9317045
  329   1   2  0.0810000     -8.0319805      5.6742201     25.0376225
  330   1   3 -0.5610000      2.8158367     19.7346420      1.1294737
  331   1   3 -0.5610000     -7.3869076      5.2567692     23.9157925
  332   1   4 -0.1540000      3.9181874     19.0220985      0.7036754
  333   1   4 -0.1540000     -6.2936530      4.5500317     24.3746529
  334   1   5  0.1070000     -8.9427853      6.2629948     25.0238609
  335   1   6  0.1210000     -5.5857635      4.0923862     23.6923828
  336   1   6  0.1210000      4.6115103     18.5742989      1.4069687
  337   1   2  0.0810000     17.5338917     -1.5570173     12.5128860
  338   1   3 -0.5610000     18.1554871     -1.9585981     13.6542091
  339   1   3 -0.5610000     18.1789646     -1.9744687     11.3910570
  340   1   4 -0.1540000     19.2578373     -2.6711411     13.2284107
  341   1   4 -0.1540000     19.2722206     -2.6812072     11.8499184
  342   1   5  0.1070000     16.6230850     -0.9682436     12.4991264
  343   1   6  0.1210000     19.9801102     -3.1388514     11.1676474
  344   1   6  0.1210000     19.9511623     -3.1189413     13.9317045
  345   1   2  0.0810000     12.4207811     -8.7880192     25.0376225
  346   1   3 -0.5610000     23.2685986      5.2724037      1.1294737
  347   1   3 -0.5610000     13.0658541     -9.2054710     23.9157925
  348   1   4 -0.1540000     24.3709488      4.5598607      0.7036754
  349   1   4 -0.1540000     14.1591091     -9.9122086     24.3746529
  350   1   5  0.1070000     11.5099745     -8.1992455     25.0238609
  351   1   6  0.1210000     14.8669987    -10.3698521     23.6923828
  352   1   6  0.1210000     25.0642719      4.1120601      1.4069687
  353   1   2  0.0810000     12.4207802     12.9052219     12.5128860
  354   1   3 -0.5610000     13.0423756     12.5036402     13.6542091
  355   1   3 -0.5610000     13.0658531     12.4877710     11.3910570
  356   1   4 -0.1540000     14.1447258     11.7910976     13.2284107
  357   1   4 -0.1540000     14.1591082     11.7810326     11.8499184
  358   1   5  0.1070000     11.5099754     13.4939966     12.4991264
  359   1   6  0.1210000     14.8669977     11.3233871     11.1676474
  360   1   6  0.1210000     14.8380508     11.3432970     13.9317045
  361   1   2  0.0810000      7.3076696      5.6742201     25.0376225
  362   1   3 -0.5610000     18.1554871     19.7346420      1.1294737
  363   1   3 -0.5610000      7.9527426      5.2567692     23.9157925
  364   1   4 -0.1540000     19.2578373     19.0220985      0.7036754
  365   1   4 -0.1540000      9.0459976      4.5500317     24.3746529
  366   1   5  0.1070000      6.3968649      6.2629948     25.0238609
  367   1   6  0.1210000      9.7538872      4.0923862     23.6923828
  368   1   6  0.1210000     19.9511604     18.5742989      1.4069687
  369   1   2  0.0810000     10.2188778      5.9420924      4.9079547
  370   1   3 -0.5610000     11.1416016      6.9185667      5.1200895
  371   1   3 -0.5610000      9.2925224      6.2913933      3.9753268
  372   1   4 -0.1540000     10.7771378      7.9443493      4.2721243
  373   1   4 -0.1540000      9.6510973      7.5624676      3.5747554
  374   1   5  0.1070000     10.2214251      4.9893746      5.4260602
  375   1   6  0.1210000      9.0826988      8.1035299      2.8261685
  376   1   6  0.1210000     11.3412762      8.8696060      4.2241549
  377   1   2  0.0810000      5.1057668     -1.2889099     17.4326897
  378   1   3 -0.5610000      6.0284901     -0.3124352     17.6448250
  379   1   3 -0.5610000      4.1794109     -0.9396086     16.5000629
  380   1   4 -0.1540000      5.6640272      0.7133474     16.7968597
  381   1   4 -0.1540000      4.5379863      0.3314657     16.0994911
  382   1   5  0.1070000      5.1083140     -2.2416277     17.9507961
  383   1   6  0.1210000      3.9695878      0.8725281     15.3509045
  384   1   6  0.1210000      6.2281656      1.6386051     16.7488899
  385   1   2  0.0810000      5.1057673     20.4043312      4.9079547
  386   1   3 -0.5610000      6.0284901     21.3808060      5.1200895