Created on 13  4 2017 17: 1:37
  
        2264  atoms
        2496  bonds
        9204  angles
       14576  dihedrals
       12672  impropers
  
           8  atom types
           7  bond types
          11  angle types
          14  dihedral types
          10  improper types
  
   0.00000000       32.5540009      xlo xhi
   0.00000000       32.5540009      ylo yhi
   0.00000000       32.5540009      zlo zhi
   0.00000000       0.00000000       0.00000000      xy xz yz
  
Masses
  
   1     65.3700027  # Zn  
   2     12.0107002  # C1  
   3     14.0067396  # N1  
   4     12.0107002  # C2  
   5     12.0107002  # C3  
   6      1.0079401  # H2  
   7      1.0079401  # H3  
   8     39.9480019  # Ar  
  
Bond Coeffs
  
   1   3.72895980       1.98699999      # harmonic    # Zn  N1  
   2   13.7451191       1.49199998      # harmonic    # C1  C3  
   3   21.1596794       1.33899999      # harmonic    # C1  N1  
   4   17.7775993       1.37100005      # harmonic    # N1  C2  
   5   22.4604797       1.34599996      # harmonic    # C2  C2  
   6   15.9131193      0.929000020      # harmonic    # C2  H2  
   7   14.7423992      0.958999991      # harmonic    # C3  H3  
  
Angle Coeffs
  
   1   0.455279976       109.470001      # harmonic   # N1  Zn  N1  
   2   3.03519988       123.889999      # harmonic    # C3  C1  N1  
   3   3.03519988       112.169998      # harmonic    # N1  C1  N1  
   4   1.51759994       128.000000      # harmonic    # Zn  N1  C2  
   5   2.16799998       127.500000      # harmonic    # Zn  N1  C1  
   6   3.03519988       105.239998      # harmonic    # C2  N1  C1  
   7   3.03519988       108.669998      # harmonic    # N1  C2  C2  
   8   2.16799998       125.660004      # harmonic    # N1  C2  H2  
   9   2.16799998       125.669998      # harmonic    # C2  C2  H2  
  10   2.16799998       109.440002      # harmonic    # C1  C3  H3  
  11   1.51759994       109.500000      # harmonic    # H3  C3  H3  
  
Dihedral Coeffs
  
   1   1   4.33599995E-03           2   180.000000      # fourier            # Zn  N1  C1  N1  
   2   1   4.33599995E-03           2   180.000000      # fourier            # Zn  N1  C1  C3  
   3   1   4.33599995E-03           2   180.000000      # fourier            # Zn  N1  C2  C2  
   4   1   0.00000000               1   0.00000000      # fourier            # Zn  N1  C2  H2  
   5   1   7.54463952E-03           3   0.00000000      # fourier            # C1  N1  Zn  N1  
   6   1  0.208128005               2   180.000000      # fourier            # C1  N1  C2  C2  
   7   1  0.208128005               2   180.000000      # fourier            # C1  N1  C2  H2  
   8   1   7.54463952E-03           3   0.00000000      # fourier            # N1  Zn  N1  C2  
   9   1  0.173439994               2   180.000000      # fourier            # N1  C2  C2  N1  
  10   1  0.173439994               2   180.000000      # fourier            # N1  C2  C2  H2  
  11   1  0.208128005               2   180.000000      # fourier            # N1  C1  N1  C2  
  12   1   0.00000000               1   0.00000000      # fourier            # N1  C1  C3  H3  
  13   1  0.173439994               2   180.000000      # fourier            # C2  N1  C1  C3  
  14   1  0.173439994               2   180.000000      # fourier            # H2  C2  C2  H2  
  
Pair Coeffs
  
           1    3.41243180E-03   2.46199989      #  lj/cut                                    # Zn  Zn  
           2    2.89211166E-03   3.43099999      #  lj/cut                                    # C1  C1  
           3    1.89916790E-03   3.26099992      #  lj/cut                                    # N1  N1  
           4    2.89211166E-03   3.43099999      #  lj/cut                                    # C2  C2  
           5    2.89211166E-03   3.43099999      #  lj/cut                                    # C3  C3  
           6    1.20974390E-03   2.57100010      #  lj/cut                                    # H2  H2  
           7    1.20974390E-03   2.57100010      #  lj/cut                                    # H3  H3  
           8    4.31894176E-02   3.33999991      #  lj/cut                                    # Ar  Ar  
  
Atoms
  
    1   1   1  0.6918000     20.6236763     24.7835808     16.5847282
    2   1   1  0.6918000     28.7626743     16.6445847     24.7237244
    3   1   1  0.6918000     20.6236763     16.6445847     24.7237244
    4   1   1  0.6918000     28.7626743     24.7835808     16.5847282
    5   1   1  0.6918000     16.5546741     20.7135849     24.7237244
    6   1   1  0.6918000     24.6936722     28.8525829     16.5847282
    7   1   1  0.6918000     24.6936722     16.6445847     20.6537285
    8   1   1  0.6918000     16.5546741     24.7835808     28.7927265
    9   1   1  0.6918000     24.6936722     20.7135849     16.5847282
   10   1   1  0.6918000     16.5546741     28.8525829     24.7237244
   11   1   1  0.6918000     16.5546741     24.7835808     20.6537285
   12   1   1  0.6918000     24.6936722     16.6445847     28.7927265
   13   1   2  0.4291000     26.8095131     32.3885880     22.6068897
   14   1   3 -0.3879000     26.3865433     16.6445847     21.4298763
   15   1   3 -0.3879000     27.9865265     16.6445847     23.0298595
   16   1   4 -0.0839000     27.3524437     17.5685101     21.0888691
   17   1   4 -0.0839000     28.3275337     17.5685101     22.0637112
   18   1   5 -0.4526000     26.0646591     31.3345165     23.3517437
   19   1   6  0.1128000     29.2345715     18.1586304     22.1367302
   20   1   6  0.1128000     27.2796726     18.1586304     20.1818314
   21   1   7  0.1310000     25.3364468     31.8255386     24.0797081
   22   1   7  0.1310000     25.4844742     30.6855335     22.6148376
   23   1   7  0.1310000     26.8015652     30.6855335     23.9316807
   24   1   2  0.4291000     18.7815361     24.1296291     30.6348667
   25   1   3 -0.3879000     18.2475471     24.7835808     29.5678806
   26   1   3 -0.3879000     19.8485222     24.7835808     31.1688557
   27   1   4 -0.0839000     19.0224533     25.9156399     29.4188595
   28   1   4 -0.0839000     19.9975433     25.9156399     30.3937016
   29   1   5 -0.4526000     18.2545013     22.8396091     31.1619015
   30   1   6  0.1128000     20.7826328     26.6376438     30.5889187
   31   1   6  0.1128000     18.8274841     26.6376438     28.6337719
   32   1   7  0.1310000     17.4614639     23.0474930     31.9546909
   33   1   7  0.1310000     17.7915440     22.2415409     30.3087597
   34   1   7  0.1310000     19.1076431     22.2415409     31.6258526
   35   1   2  0.4291000     22.5765896     17.1775799     22.6068897
   36   1   3 -0.3879000     22.9995594     16.6445847     21.4298763
   37   1   3 -0.3879000     21.3995762     16.6445847     23.0298595
   38   1   4 -0.0839000     22.0336590     31.9976578     21.0888691
   39   1   4 -0.0839000     21.0585670     31.9976578     22.0637112
   40   1   5 -0.4526000     23.3214436     18.2316513     23.3517437
   41   1   6  0.1128000     20.1515312     31.4075375     22.1367302
   42   1   6  0.1128000     22.1066780     31.4075375     20.1818314
   43   1   7  0.1310000     24.0496559     17.7406292     24.0797081
   44   1   7  0.1310000     23.9016285     18.8806343     22.6148376
   45   1   7  0.1310000     22.5845375     18.8806343     23.9316807
   46   1   2  0.4291000     30.6045666     24.1296291     30.6348667
   47   1   3 -0.3879000     31.1385555     24.7835808     29.5678806
   48   1   3 -0.3879000     29.5375805     24.7835808     31.1688557
   49   1   4 -0.0839000     30.3636494     25.9156399     29.4188595
   50   1   4 -0.0839000     29.3885593     25.9156399     30.3937016
   51   1   5 -0.4526000     31.1316013     22.8396091     31.1619015
   52   1   6  0.1128000     28.6034698     26.6376438     30.5889187
   53   1   6  0.1128000     30.5586185     26.6376438     28.6337719
   54   1   7  0.1310000     30.6075459     21.9725590     30.6378479
   55   1   7  0.1310000     32.2534752     22.7795048     30.9666862
   56   1   7  0.1310000     30.9366322     22.7795048     32.2837753
   57   1   2  0.4291000     18.5326729     24.5876198     18.5627251
   58   1   3 -0.3879000     18.2475471     24.7835808     19.8788223
   59   1   3 -0.3879000     19.8485222     24.7835808     18.2778473
   60   1   4 -0.0839000     19.4536190     25.1216087     20.4587612
   61   1   4 -0.0839000     20.4284592     25.1216087     19.4839191
   62   1   5 -0.4526000     17.5156078     24.2026501     17.5459099
   63   1   6  0.1128000     21.4874992     25.3376884     19.5638943
   64   1   6  0.1128000     19.5335922     25.3376884     21.5177994
   65   1   7  0.1310000     17.4525223     23.0656242     17.4828243
   66   1   7  0.1310000      0.2225371     24.6226387     17.8456879
   67   1   7  0.1310000     17.8156357     24.6226387      0.2528379
   68   1   2  0.4291000     26.7245712     17.0216064     26.7548733
   69   1   3 -0.3879000     26.3865433     16.6445847     28.0168266
   70   1   3 -0.3879000     27.9865265     16.6445847     26.4168453
   71   1   4 -0.0839000     27.4994774     32.2686272     28.5048676
   72   1   4 -0.0839000     28.4745674     32.2686272     27.5297775
   73   1   5 -0.4526000     25.8125668     17.7664585     25.8428669
   74   1   6  0.1128000     29.4754887     31.8506241     27.5508900
   75   1   6  0.1128000     27.5205879     31.8506241     29.5057888
   76   1   7  0.1310000     25.1995964     17.0255795     25.2298965
   77   1   7  0.1310000     25.1116734     18.4226456     26.4578247
   78   1   7  0.1310000     26.4275246     18.4226456     25.1417274
   79   1   2  0.4291000     30.7155857     25.3165779     18.7008171
   80   1   3 -0.3879000     31.1385555     24.7835808     19.8788223
   81   1   3 -0.3879000     29.5375805     24.7835808     18.2778473
   82   1   4 -0.0839000     30.1716614     23.8586617     20.2198315
   83   1   4 -0.0839000     29.1975651     23.8586617     19.2447414
   84   1   5 -0.4526000     31.4604397     26.3706474     17.9557152
   85   1   6  0.1128000     28.2895336     23.2685394     19.1717224
   86   1   6  0.1128000     30.2446823     23.2685394     21.1268692
   87   1   7  0.1310000     31.1124763     27.3986397     18.3039265
   88   1   7  0.1310000      0.0235949     26.2586346     18.1558990
   89   1   7  0.1310000     31.2605038     26.2586346     16.8388081
   90   1   2  0.4291000     22.5765896     32.3885880     26.8398132
   91   1   3 -0.3879000     22.9995594     16.6445847     28.0168266
   92   1   3 -0.3879000     21.3995762     16.6445847     26.4168453
   93   1   4 -0.0839000     22.0336590     17.5685101     28.3578358
   94   1   4 -0.0839000     21.0585670     17.5685101     27.3827457
   95   1   5 -0.4526000     23.3214436     31.3345165     26.0947113
   96   1   6  0.1128000     20.1515312     18.1586304     27.3097248
   97   1   6  0.1128000     22.1066780     18.1586304     29.2648716
   98   1   7  0.1310000     24.0496559     31.8255386     25.3667469
   99   1   7  0.1310000     23.9016285     30.6855335     26.8318653
  100   1   7  0.1310000     22.5845375     30.6855335     25.5147743
  101   1   2  0.4291000     22.6615314     26.8144798     16.9617500
  102   1   3 -0.3879000     22.9995594     28.0766830     16.5847282
  103   1   3 -0.3879000     21.3995762     26.4764519     16.5847282
  104   1   4 -0.0839000     21.8866253     28.5644760     32.2087708
  105   1   4 -0.0839000     20.9115353     27.5896358     32.2087708
  106   1   5 -0.4526000     23.5735359     25.9024754     17.7068520
  107   1   6  0.1128000     19.9106140     27.6104984     31.7907677
  108   1   6  0.1128000     21.8655128     29.5656452     31.7907677
  109   1   7  0.1310000     24.1865063     25.2895050     16.9657230
  110   1   7  0.1310000     24.2746773     26.5176811     18.3627892
  111   1   7  0.1310000     22.9585781     25.2015839     18.3627892
  112   1   2  0.4291000     30.8005276     18.6764774     24.3457088
  113   1   3 -0.3879000     31.1385555     19.9386806     24.7237244
  114   1   3 -0.3879000     29.5375805     18.3374557     24.7237244
  115   1   4 -0.0839000     30.0246277     20.4254799     25.3766823
  116   1   4 -0.0839000     29.0505314     19.4516315     25.3766823
  117   1   5 -0.4526000     31.7125320     17.7634792     23.6008568
  118   1   6  0.1128000     28.0496120     19.4715004     25.7936916
  119   1   6  0.1128000     30.0045109     21.4266491     25.7936916
  120   1   7  0.1310000     31.5654984     17.9105129     22.4807186
  121   1   7  0.1310000      0.2396745     17.9996758     23.8767910
  122   1   7  0.1310000     31.4775772     16.6825848     23.8767910
  123   1   2  0.4291000     17.2076321     22.5564709     26.9498405
  124   1   3 -0.3879000     16.5546741     23.0894680     28.0168266
  125   1   3 -0.3879000     16.5546741     21.4894848     26.4168453
  126   1   4 -0.0839000     31.6996174     22.3145618     28.1668415
  127   1   4 -0.0839000     31.6996174     21.3394718     27.1917496
  128   1   5 -0.4526000     18.4986458     23.0835075     26.4237995
  129   1   6  0.1128000     30.9776134     20.5556240     26.9967823
  130   1   6  0.1128000     30.9776134     22.5095291     28.9516811
  131   1   7  0.1310000     18.2895203     23.8755493     25.6307621
  132   1   7  0.1310000     19.0964661     23.5464630     27.2756977
  133   1   7  0.1310000     19.0964661     22.2306137     25.9598484
  134   1   2  0.4291000     24.1596832     30.8054943     18.7008171
  135   1   3 -0.3879000     24.6936722     31.2284641     19.8788223
  136   1   3 -0.3879000     24.6936722     29.6274891     18.2778473
  137   1   4 -0.0839000     25.6175976     30.2615700     20.2198315
  138   1   4 -0.0839000     25.6175976     29.2874737     19.2447414
  139   1   5 -0.4526000     23.1066055     31.5505962     17.9557152
  140   1   6  0.1128000     26.2074699     28.3796921     19.1717224
  141   1   6  0.1128000     26.2074699     30.3345909     21.1268692
  142   1   7  0.1310000     22.0776196     31.2026348     18.3039265
  143   1   7  0.1310000     23.2176247      0.1135039     18.1558990
  144   1   7  0.1310000     23.2176247     31.3506603     16.8388081
  145   1   2  0.4291000     18.6705170     30.8054943     24.1897354
  146   1   3 -0.3879000     18.2475471     29.6274891     24.7237244
  147   1   3 -0.3879000     19.8485222     31.2284641     24.7237244
  148   1   4 -0.0839000     19.2144413     29.2874737     25.6478996
  149   1   4 -0.0839000     20.1895313     30.2615700     25.6478996
  150   1   5 -0.4526000     17.9256630     31.5505962     23.1369057
  151   1   6  0.1128000     21.0965691     30.3345909     26.2377720
  152   1   6  0.1128000     19.1416683     28.3796921     26.2377720
  153   1   7  0.1310000     18.2736244     31.2026348     22.1079197
  154   1   7  0.1310000     16.8085060     31.3506603     23.2479267
  155   1   7  0.1310000     18.1255989      0.1135039     23.2479267
  156   1   2  0.4291000     26.8095131     22.6664982     17.1177235
  157   1   3 -0.3879000     26.3865433     21.4894848     16.5847282
  158   1   3 -0.3879000     27.9865265     23.0894680     16.5847282
  159   1   4 -0.0839000     27.3524437     21.1484776     31.9378014
  160   1   4 -0.0839000     28.3275337     22.1235676     31.9378014
  161   1   5 -0.4526000     26.0646591     23.4116001     18.1717949
  162   1   6  0.1128000     29.2345715     22.1965866     31.3476810
  163   1   6  0.1128000     27.2796726     20.2416878     31.3476810
  164   1   7  0.1310000     25.3364468     24.1395645     17.6807728
  165   1   7  0.1310000     25.4844742     22.6746941     18.8207779
  166   1   7  0.1310000     26.8015652     23.9915371     18.8207779
  167   1   2  0.4291000     16.7496433     22.8045902     22.7447338
  168   1   3 -0.3879000     16.5546741     23.0894680     21.4298763
  169   1   3 -0.3879000     16.5546741     21.4894848     23.0298595
  170   1   4 -0.0839000     32.4936485     21.8846378     20.8496914
  171   1   4 -0.0839000     32.4936485     20.9095478     21.8247814
  172   1   5 -0.4526000     17.1356068     23.8226471     23.7627907
  173   1   6  0.1128000     32.2775688     19.8495159     21.7448063
  174   1   6  0.1128000     32.2775688     21.8046627     19.7899075
  175   1   7  0.1310000     18.2716389     23.8854847     23.8258762
  176   1   7  0.1310000     16.7146244     24.8384705     23.4627628
  177   1   7  0.1310000     16.7146244     23.5226192     24.7788620
  178   1   2  0.4291000     25.2266674     30.8054943     30.7458858
  179   1   3 -0.3879000     24.6936722     31.2284641     29.5678806
  180   1   3 -0.3879000     24.6936722     29.6274891     31.1688557
  181   1   4 -0.0839000     23.7685032     30.2615700     29.2278652
  182   1   4 -0.0839000     23.7685032     29.2874737     30.2017136
  183   1   5 -0.4526000     26.2804909     31.5505962     31.4907398
  184   1   6  0.1128000     23.1786308     28.3796921     30.2747345
  185   1   6  0.1128000     23.1786308     30.3345909     28.3198357
  186   1   7  0.1310000     27.3084831     31.2026348     31.1427784
  187   1   7  0.1310000     26.1684780      0.1135039     31.2908039
  188   1   7  0.1310000     26.1684780     31.3506603      0.0538957
  189   1   2  0.4291000     22.5765896     22.6664982     32.3287315
  190   1   3 -0.3879000     22.9995594     21.4894848     16.5847282
  191   1   3 -0.3879000     21.3995762     23.0894680     16.5847282
  192   1   4 -0.0839000     22.0336590     21.1484776     17.5089016
  193   1   4 -0.0839000     21.0585670     22.1235676     17.5089016
  194   1   5 -0.4526000     23.3214436     23.4116001     31.2749100
  195   1   6  0.1128000     20.1515312     22.1965866     18.0987740
  196   1   6  0.1128000     22.1066780     20.2416878     18.0987740
  197   1   7  0.1310000     24.0496559     24.1395645     31.7656822
  198   1   7  0.1310000     23.9016285     22.6746941     30.6259251
  199   1   7  0.1310000     22.5845375     23.9915371     30.6259251
  200   1   2  0.4291000     30.6045666     30.6944752     25.3766823
  201   1   3 -0.3879000     31.1385555     29.6274891     24.7237244
  202   1   3 -0.3879000     29.5375805     31.2284641     24.7237244
  203   1   4 -0.0839000     30.3636494     29.4784679     23.5909214
  204   1   4 -0.0839000     29.3885593     30.4535580     23.5909214
  205   1   5 -0.4526000     31.1316013     31.2215099     26.6667023
  206   1   6  0.1128000     28.6034698     30.6485271     22.8689175
  207   1   6  0.1128000     30.5586185     28.6936283     22.8689175
  208   1   7  0.1310000     30.6075459     30.6974545     27.5337524
  209   1   7  0.1310000     32.2534752     31.0265427     26.7278004
  210   1   7  0.1310000     30.9366322     32.3436356     26.7278004
  211   1   2  0.4291000     25.2266674     18.7606735     18.7008171
  212   1   3 -0.3879000     24.6936722     19.9386806     18.2778473
  213   1   3 -0.3879000     24.6936722     18.3374557     19.8788223
  214   1   4 -0.0839000     23.7685032     20.2796879     19.2447414
  215   1   4 -0.0839000     23.7685032     19.3045979     20.2198315
  216   1   5 -0.4526000     26.2804909     18.0155716     17.9557152
  217   1   6  0.1128000     23.1786308     19.2315788     21.1268692
  218   1   6  0.1128000     23.1786308     21.1864777     19.1717224
  219   1   7  0.1310000     25.7884750     17.2886009     17.2287445
  220   1   7  0.1310000     26.9284821     18.7524776     17.3767700
  221   1   7  0.1310000     26.9284821     17.4366283     18.6928692
  222   1   2  0.4291000      0.0824580     26.7615776     26.7017212
  223   1   3 -0.3879000     16.5546741     28.0766830     26.4168453
  224   1   3 -0.3879000     16.5546741     26.4764519     28.0168266
  225   1   4 -0.0839000     16.8924541     28.6566200     27.6229153
  226   1   4 -0.0839000     16.8924541     27.6825237     28.5967636
  227   1   5 -0.4526000     32.2504959     25.7435207     25.6839123
  228   1   6  0.1128000     17.1085339     27.7615051     29.6567955
  229   1   6  0.1128000     17.1085339     29.7166519     27.7018967
  230   1   7  0.1310000     31.1144638     25.6806831     25.6208267
  231   1   7  0.1310000      0.1174777     26.0435486     24.6678410
  232   1   7  0.1310000      0.1174777     24.7276993     25.9836922
  233   1   2  0.4291000     18.6705170     18.7606735     25.2567215
  234   1   3 -0.3879000     18.2475471     19.9386806     24.7237244
  235   1   3 -0.3879000     19.8485222     18.3374557     24.7237244
  236   1   4 -0.0839000     19.2144413     20.2796879     23.7988052
  237   1   4 -0.0839000     20.1895313     19.3045979     23.7988052
  238   1   5 -0.4526000     17.9256630     18.0155716     26.3107910
  239   1   6  0.1128000     21.0965691     19.2315788     23.2086830
  240   1   6  0.1128000     19.1416683     21.1864777     23.2086830
  241   1   7  0.1310000     18.2736244     18.3635349     27.3387833
  242   1   7  0.1310000     16.8085060     18.2155075     26.1987782
  243   1   7  0.1310000     18.1255989     16.8986645     26.1987782
  244   1   2  0.4291000     26.8095131     26.8996696     32.3287315
  245   1   3 -0.3879000     26.3865433     28.0766830     16.5847282
  246   1   3 -0.3879000     27.9865265     26.4764519     16.5847282
  247   1   4 -0.0839000     27.3524437     28.4176922     17.5089016
  248   1   4 -0.0839000     28.3275337     27.4426022     17.5089016
  249   1   5 -0.4526000     26.0646591     26.1545677     31.2749100
  250   1   6  0.1128000     29.2345715     27.3695812     18.0987740
  251   1   6  0.1128000     27.2796726     29.3244801     18.0987740
  252   1   7  0.1310000     25.3364468     25.4266033     31.7656822
  253   1   7  0.1310000     25.4844742     26.8914738     30.6259251
  254   1   7  0.1310000     26.8015652     25.5746307     30.6259251
  255   1   2  0.4291000     24.1596832     18.7606735     30.7458858
  256   1   3 -0.3879000     24.6936722     18.3374557     29.5678806
  257   1   3 -0.3879000     24.6936722     19.9386806     31.1688557
  258   1   4 -0.0839000     25.6175976     19.3045979     29.2278652
  259   1   4 -0.0839000     25.6175976     20.2796879     30.2017136
  260   1   5 -0.4526000     23.1066055     18.0155716     31.4907398
  261   1   6  0.1128000     26.2074699     21.1864777     30.2747345
  262   1   6  0.1128000     26.2074699     19.2315788     28.3198357
  263   1   7  0.1310000     22.0776196     18.3635349     31.1427784
  264   1   7  0.1310000     23.2176247     16.8986645     31.2908039
  265   1   7  0.1310000     23.2176247     18.2155075      0.0538957
  266   1   2  0.4291000     32.1784706     27.0096970     22.4968624
  267   1   3 -0.3879000     16.5546741     26.4764519     21.4298763
  268   1   3 -0.3879000     16.5546741     28.0766830     23.0298595
  269   1   4 -0.0839000     17.6864853     27.2516079     21.2798634
  270   1   4 -0.0839000     17.6864853     28.2266979     22.2547054
  271   1   5 -0.4526000     30.8874569     26.4836559     23.0238991
  272   1   6  0.1128000     18.4084892     29.0115376     22.4499226
  273   1   6  0.1128000     18.4084892     27.0566387     20.4957676
  274   1   7  0.1310000     30.0216484     27.0064678     22.4998436
  275   1   7  0.1310000     30.8276005     25.3615322     22.8286819
  276   1   7  0.1310000     30.8276005     26.6776295     24.1447811
  277   1   1  0.6918000     20.6236763     24.7835808      0.3077271
  278   1   1  0.6918000     28.7626743     16.6445847      8.4467239
  279   1   1  0.6918000     20.6236763     16.6445847      8.4467239
  280   1   1  0.6918000     28.7626743     24.7835808      0.3077271
  281   1   1  0.6918000     16.5546741     20.7135849      8.4467239
  282   1   1  0.6918000     24.6936722     28.8525829      0.3077271
  283   1   1  0.6918000     24.6936722     16.6445847      4.3767290
  284   1   1  0.6918000     16.5546741     24.7835808     12.5157261
  285   1   1  0.6918000     24.6936722     20.7135849      0.3077271
  286   1   1  0.6918000     16.5546741     28.8525829      8.4467239
  287   1   1  0.6918000     16.5546741     24.7835808      4.3767290
  288   1   1  0.6918000     24.6936722     16.6445847     12.5157261
  289   1   2  0.4291000     26.8095131     32.3885880      6.3298893
  290   1   3 -0.3879000     26.3865433     16.6445847      5.1528769
  291   1   3 -0.3879000     27.9865265     16.6445847      6.7528591
  292   1   4 -0.0839000     27.3524437     17.5685101      4.8118682
  293   1   4 -0.0839000     28.3275337     17.5685101      5.7867103
  294   1   5 -0.4526000     26.0646591     31.3345165      7.0747428
  295   1   6  0.1128000     29.2345715     18.1586304      5.8597302
  296   1   6  0.1128000     27.2796726     18.1586304      3.9048309
  297   1   7  0.1310000     25.3364468     31.8255386      7.8027077
  298   1   7  0.1310000     25.4844742     30.6855335      6.3378372
  299   1   7  0.1310000     26.8015652     30.6855335      7.6546807
  300   1   2  0.4291000     18.7815361     24.1296291     14.3578663
  301   1   3 -0.3879000     18.2475471     24.7835808     13.2918739
  302   1   3 -0.3879000     19.8485222     24.7835808     14.8918562
  303   1   4 -0.0839000     19.0224533     25.9156399     13.1418600
  304   1   4 -0.0839000     19.9975433     25.9156399     14.1167011
  305   1   5 -0.4526000     18.2545013     22.8396091     14.8849020
  306   1   6  0.1128000     20.7826328     26.6376438     14.3119183
  307   1   6  0.1128000     18.8274841     26.6376438     12.3567705
  308   1   7  0.1310000     17.4614639     23.0474930     15.6776905
  309   1   7  0.1310000     17.7915440     22.2415409     14.0317602
  310   1   7  0.1310000     19.1076431     22.2415409     15.3488522
  311   1   2  0.4291000     22.5765896     17.1775799      6.3298893
  312   1   3 -0.3879000     22.9995594     16.6445847      5.1528769
  313   1   3 -0.3879000     21.3995762     16.6445847      6.7528591
  314   1   4 -0.0839000     22.0336590     31.9976578      4.8118682
  315   1   4 -0.0839000     21.0585670     31.9976578      5.7867103
  316   1   5 -0.4526000     23.3214436     18.2316513      7.0747428
  317   1   6  0.1128000     20.1515312     31.4075375      5.8597302
  318   1   6  0.1128000     22.1066780     31.4075375      3.9048309
  319   1   7  0.1310000     24.0496559     17.7406292      7.8027077
  320   1   7  0.1310000     23.9016285     18.8806343      6.3378372
  321   1   7  0.1310000     22.5845375     18.8806343      7.6546807
  322   1   2  0.4291000     30.6045666     24.1296291     14.3578663
  323   1   3 -0.3879000     31.1385555     24.7835808     13.2918739
  324   1   3 -0.3879000     29.5375805     24.7835808     14.8918562
  325   1   4 -0.0839000     30.3636494     25.9156399     13.1418600
  326   1   4 -0.0839000     29.3885593     25.9156399     14.1167011
  327   1   5 -0.4526000     31.1316013     22.8396091     14.8849020
  328   1   6  0.1128000     28.6034698     26.6376438     14.3119183
  329   1   6  0.1128000     30.5586185     26.6376438     12.3567705
  330   1   7  0.1310000     30.6075459     21.9725590     14.3608465
  331   1   7  0.1310000     32.2534752     22.7795048     14.6896849
  332   1   7  0.1310000     30.9366322     22.7795048     16.0067768
  333   1   2  0.4291000     18.5326729     24.5876198      2.2857244
  334   1   3 -0.3879000     18.2475471     24.7835808      3.6018229
  335   1   3 -0.3879000     19.8485222     24.7835808      2.0008471
  336   1   4 -0.0839000     19.4536190     25.1216087      4.1817603
  337   1   4 -0.0839000     20.4284592     25.1216087      3.2069187
  338   1   5 -0.4526000     17.5156078     24.2026501      1.2689086
  339   1   6  0.1128000     21.4874992     25.3376884      3.2868931
  340   1   6  0.1128000     19.5335922     25.3376884      5.2417922
  341   1   7  0.1310000     17.4525223     23.0656242      1.2058233
  342   1   7  0.1310000      0.2225371     24.6226387      1.5686879
  343   1   7  0.1310000     17.8156357     24.6226387     16.5298386
  344   1   2  0.4291000     26.7245712     17.0216064     10.4778719
  345   1   3 -0.3879000     26.3865433     16.6445847     11.7398262
  346   1   3 -0.3879000     27.9865265     16.6445847     10.1398439
  347   1   4 -0.0839000     27.4994774     32.2686272     12.2278681
  348   1   4 -0.0839000     28.4745674     32.2686272     11.2527781
  349   1   5 -0.4526000     25.8125668     17.7664585      9.5658674
  350   1   6  0.1128000     29.4754887     31.8506241     11.2738895
  351   1   6  0.1128000     27.5205879     31.8506241     13.2287884
  352   1   7  0.1310000     25.1995964     17.0255795      8.9528971
  353   1   7  0.1310000     25.1116734     18.4226456     10.1808243
  354   1   7  0.1310000     26.4275246     18.4226456      8.8647261
  355   1   2  0.4291000     30.7155857     25.3165779      2.4238167
  356   1   3 -0.3879000     31.1385555     24.7835808      3.6018229
  357   1   3 -0.3879000     29.5375805     24.7835808      2.0008471
  358   1   4 -0.0839000     30.1716614     23.8586617      3.9428310
  359   1   4 -0.0839000     29.1975651     23.8586617      2.9677410
  360   1   5 -0.4526000     31.4604397     26.3706474      1.6787146
  361   1   6  0.1128000     28.2895336     23.2685394      2.8947210
  362   1   6  0.1128000     30.2446823     23.2685394      4.8498688
  363   1   7  0.1310000     31.1124763     27.3986397      2.0269256
  364   1   7  0.1310000      0.0235949     26.2586346      1.8788987
  365   1   7  0.1310000     31.2605038     26.2586346      0.5628003
  366   1   2  0.4291000     22.5765896     32.3885880     10.5628138
  367   1   3 -0.3879000     22.9995594     16.6445847     11.7398262
  368   1   3 -0.3879000     21.3995762     16.6445847     10.1398439