ITEM: TIMESTEP
0
ITEM: NUMBER OF ATOMS
537
ITEM: BOX BOUNDS xy xz yz pp pp pp
-1.1313651100000000e+01 2.2627300300000002e+01 -1.1313651100000000e+01
0.0000000000000000e+00 1.9595817600000000e+01 0.0000000000000000e+00
0.0000000000000000e+00 1.8794300100000001e+01 0.0000000000000000e+00
ITEM: ATOMS element xs ys zs 
Zn 0.0793524 0.414108 0.375 
Zn 0.0793524 0.414108 0.875 
Zn 0.918136 0.584129 0.125 
Zn 0.918136 0.584129 0.625 
Zn 0.583764 0.664741 0.375 
Zn 0.583764 0.664741 0.875 
Zn 0.333129 0.918518 0.375 
Zn 0.333129 0.918518 0.875 
Zn 0.66436 0.0797195 0.125 
Zn 0.66436 0.0797195 0.625 
Zn 0.413743 0.333511 0.125 
Zn 0.413743 0.333511 0.625 
Zn 0.66436 0.584129 0.125 
Zn 0.66436 0.584129 0.625 
Zn 0.918137 0.333511 0.125 
Zn 0.918137 0.333511 0.625 
Zn 0.413742 0.0797195 0.125 
Zn 0.413742 0.0797195 0.625 
Zn 0.583762 0.918518 0.375 
Zn 0.583762 0.918518 0.875 
Zn 0.0793541 0.664741 0.375 
Zn 0.0793541 0.664741 0.875 
Zn 0.333129 0.414108 0.375 
Zn 0.333129 0.414108 0.875 
C 0.987257 0.379646 0.258049 
N 0.947661 0.327408 0.213257 
N 0.0120986 0.359627 0.313187 
C 0.947472 0.271111 0.241753 
C 0.986719 0.290733 0.30262 
C 0.00183187 0.451012 0.247841 
H 0.998291 0.260651 0.338943 
H 0.919579 0.221291 0.216873 
H 0.0498261 0.480377 0.214188 
H 0.956902 0.450371 0.219658 
H 0.00990941 0.476868 0.301857 
C 0.987257 0.379646 0.758049 
N 0.947661 0.327408 0.713257 
N 0.0120986 0.359627 0.813187 
C 0.947472 0.271111 0.741753 
C 0.986719 0.290733 0.80262 
C 0.00183187 0.451012 0.747841 
H 0.998291 0.260651 0.838943 
H 0.919579 0.221291 0.716873 
H 0.0498261 0.480377 0.714188 
H 0.956902 0.450371 0.719658 
H 0.00990941 0.476868 0.801857 
C 0.995683 0.619522 0.997849 
N 0.0498274 0.67083 0.963257 
N 0.98539 0.638611 0.0631866 
C 0.0752411 0.72554 0.00943756 
C 0.0359877 0.70591 0.0703125 
H 0.96415 0.568901 0.975754 
H 0.0405186 0.734978 0.117912 
H 0.119231 0.774338 0.995842 
C 0.990416 0.623627 0.494164 
N 0.0498274 0.67083 0.463257 
N 0.98539 0.638611 0.563187 
C 0.0843718 0.718407 0.515831 
C 0.0451183 0.698776 0.576698 
H 0.951318 0.578941 0.466751 
H 0.0554578 0.723289 0.62838 
H 0.134178 0.762649 0.506317 
C 0.618217 0.607109 0.258049 
N 0.670465 0.619743 0.213257 
N 0.638237 0.65197 0.313187 
C 0.72676 0.675857 0.241753 
C 0.707138 0.69548 0.30262 
C 0.54686 0.550331 0.247841 
H 0.737219 0.737137 0.338943 
H 0.776579 0.697777 0.216873 
H 0.517488 0.568962 0.214188 
H 0.547502 0.506042 0.219658 
H 0.521003 0.532539 0.301857 
C 0.617415 0.614098 0.752586 
N 0.670465 0.619743 0.713257 
N 0.638237 0.65197 0.813187 
C 0.728143 0.663742 0.751221 
C 0.708518 0.683357 0.812088 
H 0.56434 0.582832 0.737297 
C 0.757135 0.727592 0.859337 
C 0.796371 0.688339 0.737618 
C 0.825348 0.75219 0.845741 
C 0.84497 0.732559 0.784866 
H 0.740898 0.74382 0.909668 
H 0.8126 0.672111 0.687279 
H 0.865564 0.788773 0.884819 
H 0.901414 0.752922 0.773621 
C 0.356263 0.987381 0.241768 
N 0.378128 0.050209 0.213257 
N 0.345902 0.985771 0.313187 
C 0.381799 0.0906525 0.269974 
C 0.362167 0.0513992 0.330841 
H 0.34799 0.943367 0.210922 
H 0.358674 0.0655212 0.385162 
H 0.398035 0.144234 0.263092 
C 0.375291 0.996063 0.747849 
N 0.378128 0.050209 0.713257 
N 0.345902 0.985771 0.813187 
C 0.348832 0.0756226 0.75943 
C 0.3292 0.0363693 0.820297 
H 0.394373 0.964523 0.725754 
C 0.298395 0.0514526 0.875038 
C 0.337638 0.129929 0.753319 
C 0.2872 0.105759 0.868942 
C 0.306832 0.145012 0.808067 
H 0.282158 0.0189896 0.925377 
H 0.353867 0.162392 0.702988 
H 0.261711 0.11824 0.91423 
H 0.297569 0.189949 0.803017 
C 0.658722 0.0113297 0.99144 
N 0.619369 0.948028 0.963257 
N 0.651587 0.0124664 0.0631866 
C 0.585388 0.906769 0.0205536 
C 0.605009 0.946007 0.0814209 
H 0.69214 0.0560226 0.960121 
H 0.589174 0.931374 0.136108 
H 0.549813 0.852661 0.0140381 
C 0.650488 0.0121765 0.490837 
N 0.619369 0.948028 0.463257 
N 0.651587 0.0124664 0.563187 
C 0.599647 0.905289 0.521584 
C 0.619271 0.944542 0.582451 
H 0.672073 0.0580902 0.458656 
H 0.612542 0.928963 0.637802 
H 0.573182 0.850243 0.515732 
C 0.367995 0.356628 0.991768 
N 0.327043 0.378502 0.963257 
N 0.359262 0.346283 0.0631866 
C 0.290268 0.382179 0.0199814 
C 0.309897 0.362556 0.0808411 
C 0.417084 0.345261 0.949387 
H 0.292291 0.359062 0.13517 
H 0.252931 0.398422 0.0130997 
H 0.390609 0.290329 0.929443 
H 0.435853 0.381622 0.902054 
H 0.462348 0.355118 0.984253 
C 0.36007 0.347382 0.490837 
N 0.327043 0.378502 0.463257 
N 0.359262 0.346283 0.563187 
C 0.304022 0.398216 0.521584 
C 0.323639 0.378601 0.582451 
C 0.393496 0.317734 0.446632 
H 0.314797 0.38533 0.63781 
H 0.275437 0.42469 0.515739 
H 0.35518 0.262032 0.434441 
H 0.412178 0.347481 0.394707 
H 0.438681 0.320976 0.476913 
C 0.00180888 0.622581 0.247849 
N 0.0121001 0.65197 0.313187 
N 0.947664 0.619743 0.213257 
C 0.961502 0.668671 0.320297 
C 0.922248 0.649048 0.25943 
H 0.0333418 0.603493 0.225754 
H 0.878259 0.653862 0.245827 
H 0.956979 0.693222 0.367897 
C 0.00180888 0.622581 0.747849 
N 0.0121001 0.65197 0.813187 
N 0.947664 0.619743 0.713257 
C 0.961502 0.668671 0.820297 
C 0.922248 0.649048 0.75943 
C 0.0451275 0.596359 0.717491 
H 0.878259 0.653862 0.745827 
H 0.956979 0.693222 0.867897 
H 0.0892725 0.638832 0.686539 
H 0.0661309 0.578339 0.762444 
H 0.0131234 0.551842 0.680237 
C 0.0102329 0.391144 0.00804901 
N 0.985391 0.346283 0.0631866 
N 0.0498285 0.378502 0.963257 
C 0.0107816 0.302772 0.0526276 
C 0.0500324 0.322388 0.99176 
H 0.999617 0.432457 0.00061035 
H 0.0779182 0.300468 0.966881 
H 0.999206 0.261108 0.0889511 
C 0.0185326 0.396172 0.51387 
N 0.985391 0.346283 0.563187 
N 0.0498285 0.378502 0.463257 
C 0.996397 0.294037 0.542549 
C 0.035652 0.31366 0.481682 
H 0.0198365 0.44474 0.514793 
C 0.0538163 0.270027 0.450249 
C 0.975341 0.230789 0.57196 
C 0.0327603 0.206779 0.47966 
C 0.993499 0.187149 0.54052 
H 0.0862821 0.286262 0.39991 
H 0.942879 0.214561 0.622299 
H 0.0477891 0.170677 0.453651 
H 0.97608 0.134827 0.56485 
C 0.383772 0.380447 0.252586 
N 0.3459 0.359627 0.313187 
N 0.378127 0.327408 0.213257 
C 0.314508 0.289352 0.312088 
C 0.334129 0.26973 0.251221 
H 0.41504 0.433533 0.237297 
C 0.309532 0.2015 0.237617 
C 0.270278 0.240738 0.359337 
C 0.265313 0.152901 0.284866 
C 0.245683 0.172523 0.345741 
H 0.325761 0.185272 0.187279 
H 0.254053 0.256973 0.409668 
H 0.244949 0.0964584 0.273621 
H 0.209098 0.132309 0.384819 
C 0.395797 0.376389 0.76387 
N 0.3459 0.359627 0.813187 
N 0.378127 0.327408 0.713257 
C 0.293663 0.296379 0.792541 
C 0.313292 0.276756 0.731667 
C 0.462532 0.441299 0.765137 
H 0.285791 0.230553 0.700363 
H 0.246428 0.269897 0.822433 
H 0.458161 0.481972 0.733566 
H 0.476984 0.459053 0.82251 
H 0.503486 0.432548 0.740311 
C 0.626983 0.0271378 0.269638 
N 0.638238 0.985771 0.313187 
N 0.670463 0.050209 0.213257 
C 0.691965 0.982513 0.282547 
C 0.711578 0.021759 0.22168 
H 0.587632 0.0402908 0.278862 
C 0.764686 0.0269089 0.181107 
C 0.725447 0.948418 0.302834 
C 0.79818 0.992821 0.201393 
C 0.778548 0.953567 0.26226 
H 0.78092 0.0593567 0.130768 
H 0.709222 0.915962 0.353172 
H 0.84211 0.99707 0.167831 
H 0.806251 0.925369 0.279037 
C 0.621482 0.018898 0.76387 
N 0.638238 0.985771 0.813187 
N 0.670463 0.050209 0.713257 
C 0.701492 0.99678 0.792549 
C 0.721109 0.0360336 0.731682 
H 0.574225 0.0202179 0.764793 
C 0.78292 0.0541992 0.700241 
C 0.743684 0.975723 0.82196 
C 0.825105 0.0331421 0.729652 
C 0.80548 0.993889 0.79052 
H 0.79915 0.0866623 0.64991 
H 0.727448 0.94326 0.872299 
H 0.876245 0.048172 0.703651 
H 0.840379 0.976463 0.81485 
C 0.374235 0.00744629 0.994163 
N 0.359259 0.0124664 0.0631866 
N 0.327041 0.948028 0.963257 
C 0.299088 0.952751 0.0766983 
C 0.279456 0.913498 0.015831 
C 0.435655 0.0611725 0.956497 
H 0.235207 0.863701 0.00630951 
H 0.274568 0.942413 0.12838 
H 0.422812 0.0987472 0.930161 
H 0.478814 0.0894318 0.996368 
H 0.452301 0.0364304 0.914169 
C 0.380075 0.995422 0.502586 
N 0.359259 0.0124664 0.563187 
N 0.327041 0.948028 0.463257 
C 0.288977 0.973587 0.562088 
C 0.269349 0.934341 0.501221 
H 0.43316 0.0172424 0.487297 
C 0.201132 0.890716 0.487633 
C 0.240372 0.9692 0.609337 
C 0.152519 0.88633 0.534882 
C 0.172151 0.925583 0.595749 
H 0.184899 0.858261 0.437286 
H 0.256601 0.00166321 0.659683 
H 0.0960771 0.85025 0.523628 
H 0.131942 0.921959 0.634842 
C 0.606728 0.618591 0.00804901 
N 0.651589 0.638611 0.0631866 
N 0.619369 0.67083 0.963257 
C 0.6951 0.707512 0.0526276 
C 0.675485 0.727142 0.99176 
H 0.565406 0.566658 0.00061035 
H 0.697401 0.776947 0.966881 
H 0.736761 0.737587 0.0889511 
C 0.650491 0.637802 0.490837 
N 0.651589 0.638611 0.563187 
N 0.619369 0.67083 0.463257 
C 0.619279 0.674232 0.582451 
C 0.599649 0.693863 0.521584 
C 0.680136 0.604378 0.446632 
H 0.57319 0.722443 0.515739 
H 0.612542 0.683082 0.63781 
H 0.735838 0.642677 0.434441 
H 0.676887 0.559189 0.476913 
H 0.650392 0.585693 0.394707 
C 0.20305 0.407722 0.384033 
N 0.247629 0.396873 0.34552 
N 0.147615 0.396873 0.34552 
C 0.218681 0.378059 0.278793 
C 0.157753 0.378059 0.278793 
H 0.210855 0.423332 0.439392 
H 0.121116 0.366058 0.236214 
H 0.243301 0.366058 0.236214 
C 0.20305 0.407722 0.884033 
N 0.247629 0.396873 0.84552 
N 0.147615 0.396873 0.84552 
C 0.218681 0.378059 0.778793 
C 0.157753 0.378059 0.778793 
H 0.210855 0.423332 0.939392 
C 0.118723 0.360893 0.717873 
C 0.240541 0.360893 0.717873 
C 0.140579 0.343719 0.656952 
C 0.2015 0.343719 0.656952 
H 0.0683381 0.360893 0.717873 
H 0.290918 0.360893 0.717873 
H 0.108293 0.329514 0.606552 
H 0.219591 0.329514 0.606552 
C 0.782982 0.567581 0.114738 
N 0.749862 0.601379 0.0955276 
N 0.849891 0.601379 0.0955276 
C 0.798699 0.65995 0.062233 
C 0.859619 0.65995 0.062233 
H 0.758681 0.518997 0.142372 
H 0.908927 0.697319 0.0409698 
H 0.786758 0.697319 0.0409698 
C 0.782982 0.567581 0.614738 
N 0.749862 0.601379 0.595528 
N 0.849891 0.601379 0.595528 
C 0.798699 0.65995 0.562233 
C 0.859619 0.65995 0.562233 
H 0.758681 0.518997 0.642372 
C 0.916801 0.713409 0.531822 
C 0.794983 0.713409 0.531822 
C 0.913076 0.766876 0.501419 
C 0.852156 0.766876 0.501419 
H 0.967178 0.713409 0.531822 
H 0.744598 0.713409 0.531822 
H 0.960389 0.811111 0.476273 
H 0.849091 0.811111 0.476273 
C 0.59015 0.794823 0.384033 
N 0.600997 0.850258 0.34552 
N 0.600996 0.750236 0.34552 
C 0.619811 0.840118 0.278793 
C 0.619812 0.77919 0.278793 
H 0.574538 0.787018 0.439392 
C 0.636979 0.757332 0.217873 
C 0.636978 0.87915 0.217873 
C 0.654153 0.796371 0.156952 
C 0.654153 0.857292 0.156952 
H 0.636977 0.706947 0.217873 
H 0.636977 0.929527 0.217873 
H 0.668359 0.778282 0.106552 
H 0.668358 0.88958 0.106552 
C 0.580963 0.79023 0.879791 
N 0.600997 0.850258 0.84552 
N 0.600996 0.750236 0.84552 
C 0.635744 0.848083 0.78614 
C 0.635744 0.787163 0.78614 
H 0.552138 0.775818 0.929047 
H 0.657897 0.767609 0.748253 
H 0.6579 0.889793 0.748253 
C 0.216315 0.781547 0.354973 
N 0.147612 0.750236 0.34552 
N 0.247626 0.850258 0.34552 
C 0.134742 0.802208 0.32914 
C 0.195663 0.863129 0.32914 
C 0.253272 0.744598 0.37365 
H 0.205595 0.914436 0.318687 
H 0.0834258 0.792267 0.318687 
H 0.256241 0.74163 0.43399 
H 0.224793 0.690811 0.350616 
H 0.30706 0.773079 0.350616 
C 0.21451 0.783363 0.864754 
N 0.147612 0.750236 0.84552 
N 0.247626 0.850258 0.84552 
C 0.137879 0.799072 0.812202 
C 0.198801 0.859993 0.812202 
H 0.238801 0.759071 0.892387 
C 0.202521 0.917168 0.781792 
C 0.0807032 0.795349 0.781792 
C 0.145341 0.913452 0.751373 
C 0.0844199 0.852531 0.751373 
H 0.252908 0.967552 0.781792 
H 0.0303176 0.744957 0.781792 
H 0.148421 0.960747 0.726196 
H 0.0371165 0.849449 0.726196 
C 0.78985 0.208023 0.129791 
N 0.849877 0.248001 0.09552 
N 0.749862 0.14798 0.09552 
C 0.847711 0.211082 0.0361481 
C 0.786782 0.150162 0.0361481 
H 0.775435 0.222427 0.179047 
H 0.767243 0.108452 0.998261 
H 0.889419 0.230629 0.998261 
C 0.79941 0.198463 0.635651 
N 0.849877 0.248001 0.59552 
N 0.749862 0.14798 0.59552 
C 0.83114 0.227653 0.525993 
C 0.770217 0.166718 0.525993 
H 0.798735 0.199127 0.693336 
H 0.740113 0.135582 0.481621 
H 0.862281 0.257759 0.481621 
C 0.433898 0.216698 0.104973 
N 0.396492 0.14798 0.0955276 
N 0.396493 0.248001 0.0955276 
C 0.331649 0.135109 0.0791626 
C 0.33165 0.19603 0.0791626 
H 0.487694 0.243591 0.118538 
C 0.272462 0.196892 0.0642319 
C 0.272463 0.0750732 0.0642319 
C 0.213273 0.136841 0.0492935 
C 0.213272 0.0759201 0.0492935 
H 0.27246 0.247269 0.0642319 
H 0.272461 0.0246811 0.0642319 
H 0.164299 0.13755 0.0369263 
H 0.1643 0.0262527 0.0369263 
C 0.433898 0.216698 0.604973 
N 0.396492 0.14798 0.595528 
N 0.396493 0.248001 0.595528 
C 0.331649 0.135109 0.579163 
C 0.33165 0.19603 0.579163 
C 0.507811 0.253647 0.623619 
H 0.290284 0.205971 0.568718 
H 0.290284 0.0838013 0.568718 
H 0.513749 0.256622 0.68396 
H 0.533111 0.225159 0.600578 
H 0.53311 0.307426 0.600578 
C 0.100219 0.549858 0.405731 
N 0.111649 0.605591 0.367401 
N 0.111648 0.505569 0.367401 
C 0.131476 0.595947 0.300987 
C 0.131476 0.535026 0.300987 
H 0.0837725 0.541634 0.460823 
H 0.144125 0.510727 0.258614 
H 0.144125 0.632896 0.258614 
C 0.0833652 0.541428 0.89463 
N 0.111649 0.605591 0.867401 
N 0.111648 0.505569 0.867401 
C 0.160667 0.61055 0.820221 
C 0.160668 0.549622 0.820221 
H 0.0427108 0.521103 0.933769 
H 0.191947 0.534637 0.790108 
H 0.191946 0.656807 0.790108 
C 0.911947 0.455727 0.0879135 
N 0.885842 0.392662 0.117401 
N 0.885843 0.492683 0.117401 
C 0.840576 0.38958 0.168503 
C 0.840576 0.4505 0.168503 
H 0.949495 0.474503 0.0455093 
H 0.811707 0.46669 0.201111 
H 0.811708 0.344513 0.201111 
C 0.922593 0.461052 0.605469 
N 0.885842 0.392662 0.617401 
N 0.885843 0.492683 0.617401 
C 0.822145 0.380363 0.638062 
C 0.822142 0.441277 0.638062 
H 0.975442 0.487472 0.588333 
H 0.781485 0.451576 0.651253 
H 0.781485 0.329407 0.651253 
C 0.448012 0.549858 0.405731 
N 0.39228 0.505569 0.367401 
N 0.492302 0.605591 0.367401 
C 0.401915 0.535026 0.300987 
C 0.462836 0.595947 0.300987 
C 0.459312 0.538559 0.481422 
H 0.487135 0.632896 0.258614 
H 0.364966 0.510727 0.258614 
H 0.436012 0.561859 0.517723 
H 0.434152 0.481453 0.492233 
H 0.516419 0.563721 0.492233 
C 0.448012 0.549858 0.905731 
N 0.39228 0.505569 0.867401 
N 0.492302 0.605591 0.867401 
C 0.401915 0.535026 0.800987 
C 0.462836 0.595947 0.800987 
H 0.45624 0.541634 0.960823 
C 0.484239 0.635452 0.740356 
C 0.362421 0.513634 0.740356 
C 0.444749 0.614052 0.679733 
C 0.383821 0.553123 0.679733 
H 0.534629 0.685829 0.740356 
H 0.312043 0.463242 0.740356 
H 0.462449 0.646721 0.629578 
H 0.351152 0.535423 0.629578 
C 0.455353 0.912331 0.337914 
N 0.492303 0.886223 0.367401 
N 0.392282 0.886223 0.367401 
C 0.450128 0.840973 0.418503 
C 0.389215 0.840973 0.418503 
C 0.481142 0.963913 0.279663 
H 0.344138 0.812088 0.451118 
H 0.466315 0.812088 0.451118 
H 0.507872 0.0173569 0.303596 
H 0.518783 0.956909 0.245407 
H 0.4365 0.956909 0.245407 
C 0.459329 0.920303 0.88607 
N 0.492303 0.886223 0.867401 
N 0.392282 0.886223 0.867401 
C 0.443231 0.827164 0.83506 
C 0.382303 0.827164 0.83506 
H 0.483834 0.969292 0.912903 
C 0.324896 0.773247 0.805527 
C 0.446715 0.773247 0.805527 
C 0.328392 0.71933 0.776001 
C 0.389313 0.71933 0.776001 
H 0.274519 0.773247 0.805527 
H 0.497099 0.773247 0.805527 
H 0.280898 0.674728 0.751572 
H 0.392196 0.674728 0.751572 
C 0.541062 0.0837402 0.14463 
N 0.505189 0.112022 0.117401 
N 0.605211 0.112022 0.117401 
C 0.549248 0.161041 0.0702209 
C 0.610169 0.161041 0.0702209 
H 0.520731 0.0430832 0.183769 
C 0.662987 0.20578 0.027153 
C 0.541168 0.20578 0.027153 
C 0.654921 0.250526 0.984077 
C 0.593985 0.250526 0.984077 
H 0.713379 0.20578 0.027153 
H 0.490791 0.20578 0.027153 
H 0.698625 0.287552 0.948448 
H 0.587312 0.287552 0.948448 
C 0.549478 0.100594 0.655731 
N 0.505189 0.112022 0.617401 
N 0.605211 0.112022 0.617401 
C 0.534653 0.131851 0.550987 
C 0.595574 0.131851 0.550987 
H 0.541258 0.084137 0.710823 
H 0.632531 0.144501 0.508614 
H 0.510353 0.144501 0.508614 
C 0.538932 0.458939 0.0959625 
N 0.605211 0.492683 0.117401 
N 0.505189 0.392662 0.117401 
C 0.613862 0.444931 0.154549 
C 0.552941 0.38401 0.154549 
H 0.515541 0.48233 0.0651398 
H 0.540313 0.335388 0.178261 
H 0.662482 0.457558 0.178261 
C 0.542135 0.455727 0.587914 
N 0.605211 0.492683 0.617401 
N 0.505189 0.392662 0.617401 
C 0.608292 0.4505 0.668503 
C 0.547371 0.38958 0.668503 
H 0.52337 0.474503 0.545509 
H 0.531183 0.344513 0.701111 
H 0.653358 0.46669 0.701111 
ITEM: TIMESTEP
100
ITEM: NUMBER OF ATOMS
537
ITEM: BOX BOUNDS xy xz yz pp pp pp
-1.1313651100000000e+01 2.2627300300000002e+01 -1.1313651100000000e+01
0.0000000000000000e+00 1.9595817600000000e+01 0.0000000000000000e+00
0.0000000000000000e+00 1.8794300100000001e+01 0.0000000000000000e+00
ITEM: ATOMS element xs ys zs 
Zn 0.0808053 0.413276 0.378024 
Zn 0.077924 0.410678 0.880216 
Zn 0.915099 0.58936 0.125299 
Zn 0.917132 0.581648 0.622808 
Zn 0.582953 0.665621 0.371621 
Zn 0.583236 0.663708 0.876914 
Zn 0.326184 0.917969 0.373831 
Zn 0.327154 0.91278 0.875694 
Zn 0.66864 0.0807253 0.124562 
Zn 0.669316 0.0805419 0.621834 
Zn 0.412375 0.330153 0.132268 
Zn 0.423084 0.333265 0.615387 
Zn 0.675566 0.585171 0.116542 
Zn 0.670798 0.584285 0.626801 
Zn 0.912137 0.32889 0.124738 
Zn 0.918369 0.328432 0.61165 
Zn 0.415006 0.0832961 0.127923 
Zn 0.413318 0.0799676 0.61679 
Zn 0.590531 0.921828 0.365263 
Zn 0.589708 0.92224 0.86923 
Zn 0.0784346 0.665707 0.377269 
Zn 0.0801245 0.660127 0.874894 
Zn 0.321236 0.40911 0.365478 
Zn 0.326543 0.408275 0.87292 
C 0.963693 0.368468 0.274383 
N 0.928217 0.317146 0.22383 
N 0.997764 0.350745 0.320168 
C 0.942671 0.267909 0.243934 
C 0.984507 0.288887 0.299572 
C 0.969711 0.438676 0.268525 
H 0.00382968 0.268576 0.315078 
H 0.930975 0.231863 0.219978 
H 1.00789 0.46744 0.23491 
H 0.927391 0.431676 0.251114 
H 0.981836 0.462712 0.314869 
C 0.966665 0.371435 0.768932 
N 0.925672 0.318925 0.723527 
N 0.991093 0.350702 0.825174 
C 0.923008 0.264315 0.755122 
C 0.959327 0.282918 0.816213 
C 0.98264 0.445007 0.760284 
H 0.963734 0.255481 0.847783 
H 0.898484 0.22251 0.739653 
H 0.0238216 0.466231 0.728604 
H 0.946943 0.448591 0.736205 
H 0.992063 0.468838 0.809948 
C 0.999423 0.618624 1.00089 
N 0.0447641 0.671891 0.962413 
N 0.991165 0.638884 0.0645362 
C 0.0687411 0.728154 0.00661211 
C 0.0360768 0.707714 0.067851 
H 0.977574 0.58035 0.980961 
H 0.0383514 0.734854 0.100241 
H 0.100797 0.772481 0.994052 
C 0.00209215 0.624084 0.502444 
N 0.0556848 0.676221 0.472485 
N -0.000928008 0.634783 0.571613 
C 0.0890554 0.720038 0.523822 
C 0.0541571 0.696369 0.583848 
H 0.972358 0.590019 0.479747 
H 0.0681197 0.717157 0.624133 
H 0.127553 0.76012 0.51984 
C 0.626876 0.602515 0.262717 
N 0.680224 0.617748 0.216622 
N 0.644669 0.650535 0.311626 
C 0.733178 0.67842 0.240516 
C 0.71321 0.695892 0.298668 
C 0.559747 0.541739 0.260908 
H 0.738393 0.732214 0.328621 
H 0.773729 0.698713 0.220132 
H 0.534391 0.548723 0.220111 
H 0.563822 0.502411 0.249882 
H 0.537022 0.532525 0.308234 
C 0.623902 0.609777 0.759533 
N 0.678024 0.617988 0.723094 
N 0.643602 0.648806 0.816346 
C 0.733499 0.665629 0.757809 
C 0.714772 0.685743 0.813652 
H 0.582263 0.581716 0.747143 
C 0.757651 0.73362 0.857864 
C 0.801004 0.694178 0.742827 
C 0.824831 0.761725 0.84352 
C 0.847256 0.745049 0.783637 
H 0.744703 0.759829 0.879762 
H 0.813172 0.67056 0.718121 
H 0.853537 0.791294 0.873878 
H 0.893072 0.759672 0.777548 
C 0.358823 -3.85676e-05 0.246658 
N 0.389214 0.061813 0.221965 
N 0.356408 -0.00152104 0.317591 
C 0.404436 0.104068 0.279242 
C 0.385887 0.0645018 0.339201 
H 0.344395 0.957502 0.222334 
H 0.390061 0.0798968 0.384114 
H 0.420697 0.146216 0.278874 
C 0.397 0.0062271 0.757811 
N 0.390413 0.0552595 0.720495 
N 0.362955 0.99344 0.82011 
C 0.354281 0.0736566 0.763088 
C 0.338357 0.0371156 0.824882 
H 0.411323 0.978964 0.735726 
C 0.308146 0.0489614 0.876583 
C 0.337863 0.120901 0.750511 
C 0.293566 0.100005 0.867121 
C 0.311561 0.137723 0.807714 
H 0.28342 0.0171306 0.904747 
H 0.333 0.133531 0.709293 
H 0.260827 0.0993706 0.889996 
H 0.310772 0.173874 0.809937 
C 0.646737 0.000369118 0.989672 
N 0.614734 0.935545 0.963735 
N 0.630794 1.00132 0.0595173 
C 0.57306 0.896735 0.0176805 
C 0.58102 0.937929 0.073824 
H 0.679937 0.0370087 0.96965 
H 0.557759 0.923583 0.118416 
H 0.541633 0.851925 0.012214 
C 0.641572 0.00533254 0.494072 
N 0.614223 0.940944 0.465303 
N 0.642709 1.00349 0.563178 
C 0.595674 0.897658 0.524007 
C 0.611211 0.935605 0.581994 
H 0.655154 0.0441273 0.465726 
H 0.602237 0.920515 0.626597 
H 0.576408 0.852643 0.524661 
C 0.369757 0.362352 0.999726 
N 0.32075 0.371736 0.97015 
N 0.367993 0.366079 0.0707882 
C 0.281319 0.372843 0.0263254 
C 0.308043 0.367276 0.0862564 
C 0.423788 0.357081 0.958958 
H 0.291747 0.366019 0.129783 
H 0.245807 0.377346 0.0228682 
H 0.399311 0.329348 0.918566 
H 0.451378 0.401312 0.940057 
H 0.447014 0.336899 0.984469 
C 0.364747 0.353423 0.490495 
N 0.319392 0.369913 0.46659 
N 0.383343 0.372829 0.55804 
C 0.299904 0.390113 0.525624 
C 0.33829 0.394771 0.580478 
C 0.402039 0.332357 0.437297 
H 0.327609 0.397137 0.628719 
H 0.267916 0.399158 0.524047 
H 0.370137 0.289739 0.411014 
H 0.425517 0.367363 0.406895 
H 0.433001 0.321842 0.46541 
C 0.983849 0.606679 0.255341 
N 0.99512 0.633733 0.32166 
N 0.940379 0.618983 0.219187 
C 0.956215 0.665508 0.325498 
C 0.923193 0.656638 0.264225 
H 0.00670564 0.586793 0.23665 
H 0.893957 0.670939 0.254439 
H 0.95593 0.686652 0.364667 
C -7.69352e-05 0.611749 0.749838 
N 1.00086 0.621253 0.819003 
N 0.944356 0.608034 0.719323 
C 0.942121 0.618036 0.835267 
C 0.906737 0.610608 0.775245 
C 0.0580842 0.61332 0.707493 
H 0.868035 0.611701 0.771242 
H 0.92655 0.61648 0.876264 
H 0.0983646 0.661587 0.70754 
H 0.0737957 0.583681 0.728456 
H 0.0439772 0.597745 0.657028 
C 0.0230453 0.390593 0.0171228 
N 0.995223 0.342559 0.0629429 
N 0.0687885 0.385777 0.975682 
C 0.0249911 0.302267 0.0521322 
C 0.0695174 0.328621 -0.000330444 
H 0.0102088 0.421649 0.00757883 
H 0.0974553 0.314882 0.98759 
H 0.016466 0.26693 0.0765169 
C 0.0394004 0.395539 0.527047 
N 0.997681 0.340554 0.567733 
N 0.0684392 0.376639 0.476272 
C 0.00697892 0.289264 0.545502 
C 0.0456455 0.30978 0.488679 
H 0.0454591 0.437544 0.534159 
C 0.0629274 0.270597 0.454439 
C 0.983334 0.226645 0.571334 
C 0.0367404 0.204599 0.476548 
C 0.997663 0.182532 0.534847 
H 0.0818515 0.280934 0.41279 
H 0.972085 0.219877 0.614821 
H 0.0325012 0.172046 0.44526 
H 0.971097 0.139285 0.542856 
C 0.396368 0.37411 0.263667 
N 0.341561 0.355443 0.303611 
N 0.393079 0.319781 0.232254 
C 0.303399 0.287436 0.301183 
C 0.337676 0.264342 0.262774 
H 0.427651 0.416108 0.251503 
C 0.317262 0.197809 0.261746 
C 0.245473 0.244276 0.327427 
C 0.261063 0.154806 0.294052 
C 0.221154 0.178042 0.320141 
H 0.34137 0.183123 0.241243 
H 0.214834 0.256586 0.333471 
H 0.245535 0.112454 0.290045 
H 0.175587 0.151472 0.318271 
C 0.399797 0.376037 0.75556 
N 0.351263 0.355261 0.80853 
N 0.383857 0.326206 0.708926 
C 0.307526 0.287897 0.794344 
C 0.329185 0.270516 0.736574 
C 0.460657 0.449048 0.74921 
H 0.311111 0.2291 0.71734 
H 0.271979 0.261533 0.822189 
H 0.460193 0.470864 0.702727 
H 0.459081 0.479007 0.788516 
H 0.502498 0.448364 0.755646 
C 0.652815 0.0457725 0.277831 
N 0.663589 0.00816773 0.323142 
N 0.694304 0.0614984 0.216454 
C 0.719172 0.0100379 0.295994 
C 0.732598 0.0327602 0.22966 
H 0.619774 0.0522684 0.289276 
C 0.776586 0.0239884 0.191533 
C 0.748712 0.975769 0.319899 
C 0.809435 0.992914 0.219535 
C 0.793212 0.965034 0.281661 
H 0.780738 0.0329323 0.145481 
H 0.738709 0.95705 0.363705 
H 0.843949 0.994494 0.200219 
H 0.791852 0.926172 0.286259 
C 0.64049 0.0390617 0.769862 
N 0.652275 -0.000120492 0.813384 
N 0.688701 0.0657554 0.71738 
C 0.710917 0.00494554 0.790263 
C 0.732952 0.0457493 0.73374 
H 0.60368 0.0481303 0.774757 
C 0.790786 0.0549273 0.699702 
C 0.750261 0.983519 0.817908 
C 0.828577 0.0287584 0.72708 
C 0.806404 0.99087 0.784702 
H 0.802626 0.0746514 0.660645 
H 0.745568 0.9738 0.862345 
H 0.858348 0.0253079 0.696211 
H 0.826859 0.969594 0.801211 
C 0.382126 0.00143304 0.999343 
N 0.375846 0.00411828 0.0704045 
N 0.32508 0.947734 0.969534 
C 0.312044 0.947902 0.08652 
C 0.281122 0.917837 0.0256703 
C 0.447668 0.0540548 0.955873 
H 0.240874 0.879295 0.0223734 
H 0.291578 0.939066 0.128376 
H 0.448706 0.100114 0.945859 
H 0.492267 0.0670939 0.983713 
H 0.4503 0.0363825 0.907566 
C 0.367532 0.96436 0.51708 
N 0.351957 0.987345 0.577978 
N 0.313401 0.930519 0.475019 
C 0.283597 0.961336 0.572603 
C 0.261755 0.929098 0.508455 
H 0.409804 0.97447 0.50112 
C 0.196679 0.900498 0.492602 
C 0.238073 0.966076 0.615472 
C 0.152544 0.903262 0.536655 
C 0.1743 0.940512 0.594804 
H 0.182341 0.892449 0.446082 
H 0.247236 0.977656 0.66366 
H 0.107214 0.877418 0.527113 
H 0.148966 0.953273 0.613962 
C 0.602315 0.615424 0.00967731 
N 0.658527 0.638279 0.0480104 
N 0.602423 0.668467 0.976709 
C 0.69442 0.706161 0.0442272 
C 0.660025 0.725376 0.00296731 
H 0.570775 0.569763 0.00360239 
H 0.676177 0.770664 0.992754 
H 0.730753 0.733736 0.0686916 
C 0.633141 0.628539 0.492557 
N 0.638322 0.63208 0.563465 
N 0.617244 0.672729 0.465055 
C 0.620226 0.68042 0.584678 
C 0.607598 0.704798 0.523899 
C 0.653778 0.584978 0.450596 
H 0.595907 0.736376 0.521623 
H 0.613591 0.689907 0.631047 
H 0.688171 0.615616 0.41854 
H 0.671898 0.563046 0.47983 
H 0.617093 0.552295 0.417588 
C 0.205231 0.4161 0.374866 
N 0.238679 0.390159 0.3417 
N 0.149538 0.403703 0.338161 
C 0.208661 0.370603 0.278168 
C 0.155576 0.379692 0.276867 
H 0.215065 0.434278 0.418654 
H 0.124919 0.366612 0.242942 
H 0.223842 0.355446 0.242119 
C 0.193784 0.398344 0.884579 
N 0.231893 0.377055 0.847395 
N 0.149489 0.404412 0.844382 
C 0.206248 0.369001 0.777894 
C 0.1555 0.383799 0.778693 
H 0.196646 0.407283 0.930115 
C 0.119783 0.375582 0.720155 
C 0.218103 0.346669 0.715529 
C 0.135981 0.35932 0.658314 
C 0.184099 0.342 0.655063 
H 0.0856696 0.38319 0.727771 
H 0.256385 0.338393 0.714267 
H 0.122752 0.372225 0.617906 
H 0.180954 0.310907 0.625152 
C 0.791681 0.57694 0.0978996 
N 0.762477 0.608744 0.0713505 
N 0.859179 0.61466 0.0886589 
C 0.811242 0.663584 0.0341868 
C 0.86912 0.665617 0.0454137 
H 0.773109 0.53899 0.123201 
H 0.909144 0.70033 0.0318639 
H 0.805235 0.690056 0.00854439 
C 0.785353 0.568981 0.600998 
N 0.755262 0.606182 0.58881 
N 0.851139 0.605343 0.584887 
C 0.800482 0.665898 0.561662 
C 0.859563 0.664596 0.556666 
H 0.770037 0.526246 0.620883 
C 0.912353 0.715225 0.523601 
C 0.797064 0.720266 0.539374 
C 0.909017 0.769989 0.503011 
C 0.850938 0.771006 0.505664 
H 0.944632 0.711169 0.513421 
H 0.772767 0.729938 0.56077 
H 0.942383 0.800333 0.47874 
H 0.842663 0.791834 0.469517 
C 0.592523 0.796484 0.383922 
N 0.588179 0.843238 0.338689 
N 0.605113 0.754356 0.346913 
C 0.599166 0.828934 0.276467 
C 0.612324 0.77828 0.279625 
H 0.590264 0.797676 0.433644 
C 0.621546 0.75407 0.219517 
C 0.600126 0.859066 0.217865 
C 0.632658 0.791559 0.159919 
C 0.624805 0.844781 0.161594 
H 0.601382 0.70935 0.216117 
H 0.581431 0.890816 0.215836 
H 0.623167 0.76732 0.116176 
H 0.647537 0.875138 0.132052 
C 0.607037 0.804185 0.886276 
N 0.61409 0.857352 0.845518 
N 0.61636 0.761779 0.844894 
C 0.629211 0.846242 0.778395 
C 0.629381 0.786525 0.778372 
H 0.595679 0.798178 0.933628 
H 0.634464 0.766962 0.7425 
H 0.63139 0.870606 0.739557 
C 0.208957 0.778364 0.337938 
N 0.142068 0.748627 0.333038 
N 0.240835 0.847462 0.325625 
C 0.130031 0.799538 0.317501 
C 0.188217 0.857749 0.315859 
C 0.244778 0.736973 0.349124 
H 0.190186 0.896173 0.30451 
H 0.0902818 0.793208 0.304181 
H 0.220105 0.700605 0.390154 
H 0.240097 0.711733 0.305291 
H 0.292851 0.764836 0.36222 
C 0.208086 0.780101 0.865787 
N 0.147848 0.74766 0.838037 
N 0.23464 0.84819 0.853762 
C 0.131528 0.793006 0.812656 
C 0.183943 0.855499 0.82454 
H 0.231661 0.760951 0.886203 
C 0.181898 0.910526 0.796844 
C 0.0802386 0.787063 0.771171 
C 0.130765 0.901703 0.754466 
C 0.0801506 0.840758 0.741986 
H 0.20884 0.957039 0.823923 
H 0.0383398 0.743528 0.769112 
H 0.127158 0.935156 0.739474 
H 0.0518468 0.830483 0.70824 
C 0.78987 0.203417 0.134506 
N 0.846724 0.242982 0.0973869 
N 0.755588 0.142132 0.0998755 
C 0.850583 0.205875 0.0435196 
C 0.793271 0.141765 0.0426082 
H 0.772138 0.216935 0.171237 
H 0.78221 0.107547 0.014175 
H 0.887797 0.221828 0.0126657 
C 0.800315 0.195281 0.61883 
N 0.851076 0.243442 0.578531 
N 0.755142 0.14686 0.577892 
C 0.838771 0.222126 0.511691 
C 0.777825 0.161769 0.511505 
H 0.796367 0.198823 0.667802 
H 0.755605 0.141221 0.473211 
H 0.864234 0.243731 0.474329 
C 0.42348 0.211037 0.105908 
N 0.388605 0.143938 0.094417 
N 0.387508 0.241439 0.0953379 
C 0.32625 0.13345 0.0748608 
C 0.326757 0.192412 0.0783498 
H 0.468273 0.232945 0.121034 
C 0.273317 0.195042 0.0584541 
C 0.269366 0.0769449 0.0541574 
C 0.215668 0.140822 0.0347868 
C 0.21541 0.0816146 0.0335919 
H 0.277262 0.23553 0.0572066 
H 0.266812 0.0367661 0.0479077 
H 0.181137 0.145494 0.0145775 
H 0.175459 0.043388 0.0326551 
C 0.437193 0.21582 0.584443 
N 0.400865 0.148027 0.571455 
N 0.402891 0.247103 0.573299 
C 0.338832 0.137515 0.54958 
C 0.339669 0.196002 0.551094 
C 0.511187 0.256442 0.609811 
H 0.306603 0.199326 0.540673 
H 0.303441 0.0986551 0.5349 
H 0.510594 0.265322 0.665539 
H 0.537338 0.233597 0.599968 
H 0.535643 0.302645 0.58891 
C 0.10447 0.548672 0.402697 
N 0.109176 0.598775 0.360096 
N 0.125649 0.508522 0.367661 
C 0.140778 0.594342 0.298783 
C 0.150907 0.541753 0.303613 
H 0.082899 0.539077 0.446485 
H 0.163289 0.526155 0.270027 
H 0.151942 0.620883 0.259711 
C 0.105073 0.550862 0.900995 
N 0.131602 0.612546 0.871959 
N 0.129322 0.513218 0.87153 
C 0.179124 0.616667 0.822119 
C 0.178884 0.557614 0.824279 
H 0.0717226 0.529511 0.935664 
H 0.206826 0.550529 0.794243 
H 0.202702 0.65174 0.797288 
C 0.901435 0.452634 0.099091 
N 0.86975 0.386952 0.123859 
N 0.870469 0.485712 0.121872 
C 0.81219 0.379205 0.160621 
C 0.812875 0.438499 0.156615 
H 0.937606 0.471039 0.0708721 
H 0.782568 0.448464 0.173256 
H 0.780546 0.338246 0.179811 
C 0.906841 0.449543 0.579829 