single conv molq qok noenergy
cell
 22.62730  22.62730  18.79430  90.00000  90.00000 120.00000
fractional
Zn        0.0793533      0.4141083      0.3750000       0.6918000
Zn        0.0793533      0.4141083      0.8750000       0.6918000
Zn        0.9181366      0.5841293      0.1250000       0.6918000
Zn        0.9181366      0.5841293      0.6250000       0.6918000
Zn        0.5837631      0.6647415      0.3750000       0.6918000
Zn        0.5837631      0.6647415      0.8750000       0.6918000
Zn        0.3331299      0.9185181      0.3750000       0.6918000
Zn        0.3331299      0.9185181      0.8750000       0.6918000
Zn        0.6643600      0.0797195      0.1250000       0.6918000
Zn        0.6643600      0.0797195      0.6250000       0.6918000
Zn        0.4137421      0.3335114      0.1250000       0.6918000
Zn        0.4137421      0.3335114      0.6250000       0.6918000
Zn        0.6643600      0.5841293      0.1250000       0.6918000
Zn        0.6643600      0.5841293      0.6250000       0.6918000
Zn        0.9181366      0.3335114      0.1250000       0.6918000
Zn        0.9181366      0.3335114      0.6250000       0.6918000
Zn        0.4137421      0.0797195      0.1250000       0.6918000
Zn        0.4137421      0.0797195      0.6250000       0.6918000
Zn        0.5837631      0.9185181      0.3750000       0.6918000
Zn        0.5837631      0.9185181      0.8750000       0.6918000
Zn        0.0793533      0.6647415      0.3750000       0.6918000
Zn        0.0793533      0.6647415      0.8750000       0.6918000
Zn        0.3331299      0.4141083      0.3750000       0.6918000
Zn        0.3331299      0.4141083      0.8750000       0.6918000
C1        0.9872589      0.3796463      0.2580490       0.4291000
N1        0.9476624      0.3274078      0.2132568      -0.3879000
N1        0.0121002      0.3596268      0.3131866      -0.3879000
C2        0.9474716      0.2711105      0.2417526      -0.0839000
C2        0.9867172      0.2907333      0.3026199      -0.0839000
C3        0.0018311      0.4510117      0.2478409      -0.4526000
H2        0.9982910      0.2606506      0.3389435       0.1128000
H2        0.9195786      0.2212906      0.2168732       0.1128000
H3        0.0498276      0.4803772      0.2141876       0.1310000
H3        0.9569016      0.4503708      0.2196579       0.1310000
H3        0.0099106      0.4768677      0.3018570       0.1310000
C1        0.9872589      0.3796463      0.7580490       0.4291000
N1        0.9476624      0.3274078      0.7132568      -0.3879000
N1        0.0121002      0.3596268      0.8131866      -0.3879000
C2        0.9474716      0.2711105      0.7417526      -0.0839000
C2        0.9867172      0.2907333      0.8026199      -0.0839000
C3        0.0018311      0.4510117      0.7478409      -0.4526000
H2        0.9982910      0.2606506      0.8389435       0.1128000
H2        0.9195786      0.2212906      0.7168732       0.1128000
H3        0.0498276      0.4803772      0.7141876       0.1310000
H3        0.9569016      0.4503708      0.7196579       0.1310000
H3        0.0099106      0.4768677      0.8018570       0.1310000
C4        0.9956818      0.6195221      0.9978485       0.2567000
N1        0.0498276      0.6708298      0.9632568      -0.3879000
N1        0.9853897      0.6386108      0.0631866      -0.3879000
C2        0.0752411      0.7255402      0.0094376      -0.0839000
C2        0.0359879      0.7059097      0.0703125      -0.0839000
H2        0.9641495      0.5689011      0.9757538       0.1128000
H2        0.0405197      0.7349777      0.1179123       0.1128000
H2        0.1192322      0.7743378      0.9958420       0.1128000
C4        0.9904175      0.6236267      0.4941635       0.2567000
N1        0.0498276      0.6708298      0.4632568      -0.3879000
N1        0.9853897      0.6386108      0.5631866      -0.3879000
C2        0.0843735      0.7184067      0.5158310      -0.0839000
C2        0.0451202      0.6987762      0.5766983      -0.0839000
H2        0.9513168      0.5789413      0.4667511       0.1128000
H2        0.0554581      0.7232895      0.6283798       0.1128000
H2        0.1341782      0.7626495      0.5063171       0.1128000
C1        0.6182175      0.6071091      0.2580490       0.4291000
N1        0.6704636      0.6197433      0.2132568      -0.3879000
N1        0.6382370      0.6519699      0.3131866      -0.3879000
C2        0.7267609      0.6758575      0.2417526      -0.0839000
C2        0.7071381      0.6954803      0.3026199      -0.0839000
C3        0.5468597      0.5503311      0.2478409      -0.4526000
H2        0.7372208      0.7371368      0.3389435       0.1128000
H2        0.7765808      0.6977768      0.2168732       0.1128000
H3        0.5174866      0.5689621      0.2141876       0.1310000
H3        0.5475006      0.5060425      0.2196579       0.1310000
H3        0.5210037      0.5325394      0.3018570       0.1310000
C4        0.6174164      0.6140976      0.7525864       0.2567000
N1        0.6704636      0.6197433      0.7132568      -0.3879000
N1        0.6382370      0.6519699      0.8131866      -0.3879000
C5        0.7281418      0.6637421      0.7512207       0.0000000
C5        0.7085190      0.6833572      0.8120880       0.0000000
H2        0.5643387      0.5828323      0.7372971       0.1128000
C6        0.7571335      0.7275925      0.8593369      -0.0550000
C6        0.7963715      0.6883392      0.7376175      -0.0550000
C6        0.8253479      0.7521896      0.8457413      -0.0550000
C6        0.8449707      0.7325592      0.7848663      -0.0550000
H1        0.7408981      0.7438202      0.9096680       0.1128000
H1        0.8125992      0.6721115      0.6872787       0.1128000
H1        0.8655624      0.7887726      0.8848190       0.1128000
H1        0.9014130      0.7529221      0.7736206       0.1128000
C4        0.3562622      0.9873810      0.2417679       0.2567000
N1        0.3781281      0.0502090      0.2132568      -0.3879000
N1        0.3459015      0.9857712      0.3131866      -0.3879000
C2        0.3817978      0.0906525      0.2699738      -0.0839000
C2        0.3621674      0.0513992      0.3308411      -0.0839000
H2        0.3479919      0.9433670      0.2109222       0.1128000
H2        0.3586731      0.0655212      0.3851624       0.1128000
H2        0.3980331      0.1442337      0.2630920       0.1128000
C4        0.3752899      0.9960632      0.7478485       0.2567000
N1        0.3781281      0.0502090      0.7132568      -0.3879000
N1        0.3459015      0.9857712      0.8131866      -0.3879000
C5        0.3488312      0.0756226      0.7594299       0.0000000
C5        0.3292007      0.0363693      0.8202972       0.0000000
H2        0.3943710      0.9645233      0.7257538       0.1128000
C6        0.2983932      0.0514526      0.8750381      -0.0550000
C6        0.3376389      0.1299286      0.7533188      -0.0550000
C6        0.2872009      0.1057587      0.8689423      -0.0550000
C6        0.3068314      0.1450119      0.8080673      -0.0550000
H1        0.2821579      0.0189896      0.9253769       0.1128000
H1        0.3538666      0.1623917      0.7029877       0.1128000
H1        0.2617111      0.1182404      0.9142303       0.1128000
H1        0.2975693      0.1899490      0.8030167       0.1128000
C4        0.6587219      0.0113297      0.9914398       0.2567000
N1        0.6193695      0.9480286      0.9632568      -0.3879000
N1        0.6515884      0.0124664      0.0631866      -0.3879000
C2        0.5853882      0.9067688      0.0205536      -0.0839000
C2        0.6050110      0.9460068      0.0814209      -0.0839000
H2        0.6921387      0.0560226      0.9601212       0.1128000
H2        0.5891724      0.9313736      0.1361084       0.1128000
H2        0.5498123      0.8526611      0.0140381       0.1128000
C4        0.6504898      0.0121765      0.4908371       0.2567000
N1        0.6193695      0.9480286      0.4632568      -0.3879000
N1        0.6515884      0.0124664      0.5631866      -0.3879000
C2        0.5996475      0.9052887      0.5215836      -0.0839000
C2        0.6192703      0.9445419      0.5824509      -0.0839000
H2        0.6720734      0.0580902      0.4586563       0.1128000
H2        0.6125412      0.9289627      0.6378021       0.1128000
H2        0.5731812      0.8502426      0.5157318       0.1128000
C1        0.3679962      0.3566284      0.9917679       0.4291000
N1        0.3270416      0.3785019      0.9632568      -0.3879000
N1        0.3592606      0.3462830      0.0631866      -0.3879000
C2        0.2902679      0.3821793      0.0199814      -0.0839000
C2        0.3098984      0.3625565      0.0808411      -0.0839000
C3        0.4170837      0.3452606      0.9493866      -0.4526000
H2        0.2922897      0.3590622      0.1351700       0.1128000
H2        0.2529297      0.3984222      0.0130997       0.1128000
H3        0.3906097      0.2903290      0.9294434       0.1310000
H3        0.4358521      0.3816223      0.9020538       0.1310000
H3        0.4623489      0.3551178      0.9842529       0.1310000
C1        0.3600693      0.3473816      0.4908371       0.4291000
N1        0.3270416      0.3785019      0.4632568      -0.3879000
N1        0.3592606      0.3462830      0.5631866      -0.3879000
C2        0.3040237      0.3982162      0.5215836      -0.0839000
C2        0.3236389      0.3786011      0.5824509      -0.0839000
C3        0.3934937      0.3177338      0.4466324      -0.4526000
H2        0.3147964      0.3853302      0.6378098       0.1128000
H2        0.2754364      0.4246902      0.5157394       0.1128000
H3        0.3551788      0.2620316      0.4344406       0.1310000
H3        0.4121780      0.3474808      0.3947067       0.1310000
H3        0.4386826      0.3209763      0.4769135       0.1310000
C4        0.0018082      0.6225815      0.2478485       0.2567000
N1        0.0121002      0.6519699      0.3131866      -0.3879000
N1        0.9476624      0.6197433      0.2132568      -0.3879000
C2        0.9615021      0.6686707      0.3202972      -0.0839000
C2        0.9222488      0.6490479      0.2594299      -0.0839000
H2        0.0333405      0.6034927      0.2257538       0.1128000
H2        0.8782578      0.6538620      0.2458267       0.1128000
H2        0.9569778      0.6932220      0.3678970       0.1128000
C1        0.0018082      0.6225815      0.7478485       0.4291000
N1        0.0121002      0.6519699      0.8131866      -0.3879000
N1        0.9476624      0.6197433      0.7132568      -0.3879000
C2        0.9615021      0.6686707      0.8202972      -0.0839000
C2        0.9222488      0.6490479      0.7594299      -0.0839000
C3        0.0451279      0.5963593      0.7174911      -0.4526000
H2        0.8782578      0.6538620      0.7458267       0.1128000
H2        0.9569778      0.6932220      0.8678970       0.1128000
H3        0.0892715      0.6388321      0.6865387       0.1310000
H3        0.0661316      0.5783386      0.7624435       0.1310000
H3        0.0131226      0.5518417      0.6802368       0.1310000
C4        0.0102310      0.3911438      0.0080490       0.2567000
N1        0.9853897      0.3462830      0.0631866      -0.3879000
N1        0.0498276      0.3785019      0.9632568      -0.3879000
C2        0.0107803      0.3027725      0.0526276      -0.0839000
C2        0.0500336      0.3223877      0.9917603      -0.0839000
H2        0.9996185      0.4324570      0.0006104       0.1128000
H2        0.0779190      0.3004684      0.9668808       0.1128000
H2        0.9992065      0.2611084      0.0889511       0.1128000
C4        0.0185318      0.3961716      0.5138702       0.2567000
N1        0.9853897      0.3462830      0.5631866      -0.3879000
N1        0.0498276      0.3785019      0.4632568      -0.3879000
C5        0.9963989      0.2940369      0.5425491       0.0000000
C5        0.0356522      0.3136597      0.4816818       0.0000000
H2        0.0198364      0.4447403      0.5147934       0.1128000
C6        0.0538177      0.2700272      0.4502487      -0.0550000
C6        0.9753418      0.2307892      0.5719604      -0.0550000
C6        0.0327606      0.2067795      0.4796600      -0.0550000
C6        0.9934998      0.1871490      0.5405197      -0.0550000
H1        0.0862808      0.2862625      0.3999100       0.1128000
H1        0.9428787      0.2145615      0.6222992       0.1128000
H1        0.0477905      0.1706772      0.4536514       0.1128000
H1        0.9760818      0.1348267      0.5648499       0.1128000
C4        0.3837738      0.3804474      0.2525864       0.2567000
N1        0.3459015      0.3596268      0.3131866      -0.3879000
N1        0.3781281      0.3274078      0.2132568      -0.3879000
C5        0.3145065      0.2893524      0.3120880       0.0000000
C5        0.3341293      0.2697296      0.2512207       0.0000000
H2        0.4150391      0.4335327      0.2372971       0.1128000
C6        0.3095322      0.2014999      0.2376175      -0.0550000
C6        0.2702789      0.2407379      0.3593369      -0.0550000
C6        0.2653122      0.1529007      0.2848663      -0.0550000
C6        0.2456818      0.1725235      0.3457413      -0.0550000
H1        0.3257599      0.1852722      0.1872787       0.1128000
H1        0.2540512      0.2569733      0.4096680       0.1128000
H1        0.2449493      0.0964584      0.2736206       0.1128000
H1        0.2090988      0.1323090      0.3848190       0.1128000
C1        0.3957977      0.3763885      0.7638702       0.4291000
N1        0.3459015      0.3596268      0.8131866      -0.3879000
N1        0.3781281      0.3274078      0.7132568      -0.3879000
C2        0.2936630      0.2963791      0.7925415      -0.0839000
C2        0.3132935      0.2767563      0.7316666      -0.0839000
C3        0.4625320      0.4412994      0.7651367      -0.4526000
H2        0.2857895      0.2305527      0.7003632       0.1128000
H2        0.2464294      0.2698975      0.8224335       0.1128000
H3        0.4581604      0.4819717      0.7335663       0.1310000
H3        0.4769821      0.4590530      0.8225098       0.1310000
H3        0.5034866      0.4325485      0.7403107       0.1310000
C4        0.6269836      0.0271378      0.2696381       0.2567000
N1        0.6382370      0.9857712      0.3131866      -0.3879000
N1        0.6704636      0.0502090      0.2132568      -0.3879000
C5        0.6919632      0.9825134      0.2825470       0.0000000
C5        0.7115784      0.0217590      0.2216797       0.0000000
H2        0.5876312      0.0402908      0.2788620       0.1128000
C6        0.7646866      0.0269089      0.1811066      -0.0550000
C6        0.7254486      0.9484177      0.3028336      -0.0550000
C6        0.7981796      0.9928207      0.2013931      -0.0550000
C6        0.7785492      0.9535675      0.2622604      -0.0550000
H1        0.7809219      0.0593567      0.1307678       0.1128000
H1        0.7092209      0.9159622      0.3531723       0.1128000
H1        0.8421097      0.9970703      0.1678314       0.1128000
H1        0.8062515      0.9253693      0.2790375       0.1128000
C4        0.6214828      0.0188980      0.7638702       0.2567000
N1        0.6382370      0.9857712      0.8131866      -0.3879000
N1        0.6704636      0.0502090      0.7132568      -0.3879000
C5        0.7014923      0.9967804      0.7925491       0.0000000
C5        0.7211075      0.0360336      0.7316818       0.0000000
H2        0.5742264      0.0202179      0.7647934       0.1128000
C6        0.7829208      0.0541992      0.7002411      -0.0550000
C6        0.7436829      0.9757233      0.8219604      -0.0550000
C6        0.8251038      0.0331421      0.7296524      -0.0550000
C6        0.8054810      0.9938889      0.7905197      -0.0550000
H1        0.7991486      0.0866623      0.6499100       0.1128000
H1        0.7274475      0.9432602      0.8722992       0.1128000
H1        0.8762436      0.0481720      0.7036514       0.1128000
H1        0.8403778      0.9764633      0.8148499       0.1128000
C1        0.3742371      0.0074463      0.9941635       0.4291000
N1        0.3592606      0.0124664      0.0631866      -0.3879000
N1        0.3270416      0.9480286      0.9632568      -0.3879000
C2        0.2990875      0.9527512      0.0766983      -0.0839000
C2        0.2794571      0.9134979      0.0158310      -0.0839000
C3        0.4356537      0.0611725      0.9564972      -0.4526000
H2        0.2352066      0.8637009      0.0063095       0.1128000
H2        0.2745667      0.9424133      0.1283798       0.1128000
H3        0.4228134      0.0987473      0.9301605       0.1310000
H3        0.4788132      0.0894318      0.9963684       0.1310000
H3        0.4523010      0.0364304      0.9141693       0.1310000
C4        0.3800735      0.9954224      0.5025864       0.2567000
N1        0.3592606      0.0124664      0.5631866      -0.3879000
N1        0.3270416      0.9480286      0.4632568      -0.3879000
C5        0.2889786      0.9735870      0.5620880       0.0000000
C5        0.2693481      0.9343414      0.5012207       0.0000000
H2        0.4331589      0.0172424      0.4872971       0.1128000
C6        0.2011337      0.8907166      0.4876328      -0.0550000
C6        0.2403717      0.9692001      0.6093369      -0.0550000
C6        0.1525192      0.8863297      0.5348816      -0.0550000
C6        0.1721497      0.9255829      0.5957489      -0.0550000
H1        0.1848984      0.8582611      0.4372864       0.1128000
H1        0.2565994      0.0016632      0.6596832       0.1128000
H1        0.0960770      0.8502502      0.5236282       0.1128000
H1        0.1319427      0.9219589      0.6348419       0.1128000
C4        0.6067276      0.6185913      0.0080490       0.2567000
N1        0.6515884      0.6386108      0.0631866      -0.3879000
N1        0.6193695      0.6708298      0.9632568      -0.3879000
C2        0.6950989      0.7075119      0.0526276      -0.0839000
C2        0.6754837      0.7271423      0.9917603      -0.0839000
H2        0.5654068      0.5666580      0.0006104       0.1128000
H2        0.6974030      0.7769470      0.9668808       0.1128000
H2        0.7367630      0.7375870      0.0889511       0.1128000
C1        0.6504898      0.6378021      0.4908371       0.4291000
N1        0.6515884      0.6386108      0.5631866      -0.3879000
N1        0.6193695      0.6708298      0.4632568      -0.3879000
C2        0.6192780      0.6742325      0.5824509      -0.0839000
C2        0.5996475      0.6938629      0.5215836      -0.0839000
C3        0.6801376      0.6043777      0.4466324      -0.4526000
H2        0.5731888      0.7224426      0.5157394       0.1128000
H2        0.6125412      0.6830826      0.6378098       0.1128000
H3        0.7358398      0.6426773      0.4344406       0.1310000
H3        0.6768875      0.5591888      0.4769135       0.1310000
H3        0.6503906      0.5856934      0.3947067       0.1310000
C4        0.2030487      0.4077225      0.3840332       0.2567000
N1        0.2476273      0.3968735      0.3455200      -0.3879000
N1        0.1476135      0.3968735      0.3455200      -0.3879000
C2        0.2186813      0.3780594      0.2787933      -0.0839000
C2        0.1577530      0.3780594      0.2787933      -0.0839000
H2        0.2108536      0.4233322      0.4393921       0.1128000
H2        0.1211166      0.3660583      0.2362137       0.1128000
H2        0.2433014      0.3660583      0.2362137       0.1128000
C4        0.2030487      0.4077225      0.8840332       0.2567000
N1        0.2476273      0.3968735      0.8455200      -0.3879000
N1        0.1476135      0.3968735      0.8455200      -0.3879000
C5        0.2186813      0.3780594      0.7787933       0.0000000
C5        0.1577530      0.3780594      0.7787933       0.0000000
H2        0.2108536      0.4233322      0.9393921       0.1128000
C6        0.1187210      0.3608932      0.7178726      -0.0550000
C6        0.2405396      0.3608932      0.7178726      -0.0550000
C6        0.1405792      0.3437195      0.6569519      -0.0550000
C6        0.2014999      0.3437195      0.6569519      -0.0550000
H1        0.0683365      0.3608932      0.7178726       0.1128000
H1        0.2909164      0.3608932      0.7178726       0.1128000
H1        0.1082916      0.3295135      0.6065521       0.1128000
H1        0.2195892      0.3295135      0.6065521       0.1128000
C4        0.7829819      0.5675812      0.1147385       0.2567000
N1        0.7498627      0.6013794      0.0955276      -0.3879000
N1        0.8498917      0.6013794      0.0955276      -0.3879000
C2        0.7986984      0.6599503      0.0622330      -0.0839000
C2        0.8596191      0.6599503      0.0622330      -0.0839000
H2        0.7586823      0.5189972      0.1423721       0.1128000
H2        0.9089279      0.6973190      0.0409698       0.1128000
H2        0.7867584      0.6973190      0.0409698       0.1128000
C4        0.7829819      0.5675812      0.6147385       0.2567000
N1        0.7498627      0.6013794      0.5955276      -0.3879000
N1        0.8498917      0.6013794      0.5955276      -0.3879000
C5        0.7986984      0.6599503      0.5622330       0.0000000
C5        0.8596191      0.6599503      0.5622330       0.0000000
H2        0.7586823      0.5189972      0.6423721       0.1128000
C6        0.9168015      0.7134094      0.5318222      -0.0550000
C6        0.7949829      0.7134094      0.5318222      -0.0550000
C6        0.9130783      0.7668762      0.5014191      -0.0550000
C6        0.8521576      0.7668762      0.5014191      -0.0550000
H1        0.9671783      0.7134094      0.5318222       0.1128000
H1        0.7445984      0.7134094      0.5318222       0.1128000
H1        0.9603882      0.8111115      0.4762726       0.1128000
H1        0.8490906      0.8111115      0.4762726       0.1128000
C4        0.5901489      0.7948227      0.3840332       0.2567000
N1        0.6009979      0.8502579      0.3455200      -0.3879000
N1        0.6009979      0.7502365      0.3455200      -0.3879000
C5        0.6198120      0.8401184      0.2787933       0.0000000
C5        0.6198120      0.7791901      0.2787933       0.0000000
H2        0.5745392      0.7870178      0.4393921       0.1128000
C6        0.6369781      0.7573318      0.2178726      -0.0550000
C6        0.6369781      0.8791504      0.2178726      -0.0550000
C6        0.6541519      0.7963715      0.1569519      -0.0550000
C6        0.6541519      0.8572922      0.1569519      -0.0550000
H1        0.6369781      0.7069473      0.2178726       0.1128000
H1        0.6369781      0.9295273      0.2178726       0.1128000
H1        0.6683578      0.7782822      0.1065521       0.1128000
H1        0.6683578      0.8895798      0.1065521       0.1128000
C4        0.5809631      0.7902298      0.8797913       0.2567000
N1        0.6009979      0.8502579      0.8455200      -0.3879000
N1        0.6009979      0.7502365      0.8455200      -0.3879000
C2        0.6357422      0.8480835      0.7861404      -0.0839000
C2        0.6357422      0.7871628      0.7861404      -0.0839000
H2        0.5521393      0.7758179      0.9290466       0.1128000
H2        0.6578979      0.7676086      0.7482529       0.1128000
H2        0.6578979      0.8897934      0.7482529       0.1128000
C1        0.2163162      0.7815475      0.3549728       0.4291000
N1        0.1476135      0.7502365      0.3455200      -0.3879000
N1        0.2476273      0.8502579      0.3455200      -0.3879000
C2        0.1347427      0.8022079      0.3291397      -0.0839000
C2        0.1956635      0.8631287      0.3291397      -0.0839000
C3        0.2532730      0.7445984      0.3736496      -0.4526000
H2        0.2055969      0.9144363      0.3186874       0.1128000
H2        0.0834274      0.7922668      0.3186874       0.1128000
H3        0.2562408      0.7416306      0.4339905       0.1310000
H3        0.2247925      0.6908112      0.3506165       0.1310000
H3        0.3070602      0.7730789      0.3506165       0.1310000
C4        0.2145081      0.7833633      0.8647537       0.2567000
N1        0.1476135      0.7502365      0.8455200      -0.3879000
N1        0.2476273      0.8502579      0.8455200      -0.3879000
C5        0.1378784      0.7990723      0.8122025       0.0000000
C5        0.1987991      0.8599930      0.8122025       0.0000000
H2        0.2388000      0.7590714      0.8923874       0.1128000
C6        0.2025223      0.9171677      0.7817917      -0.0550000
C6        0.0807037      0.7953491      0.7817917      -0.0550000
C6        0.1453400      0.9134521      0.7513733      -0.0550000
C6        0.0844193      0.8525314      0.7513733      -0.0550000
H1        0.2529068      0.9675522      0.7817917       0.1128000
H1        0.0303192      0.7449570      0.7817917       0.1128000
H1        0.1484222      0.9607468      0.7261963       0.1128000
H1        0.0371170      0.8494492      0.7261963       0.1128000
C4        0.7898483      0.2080231      0.1297913       0.2567000
N1        0.8498764      0.2480011      0.0955200      -0.3879000
N1        0.7498627      0.1479797      0.0955200      -0.3879000
C2        0.8477097      0.2110825      0.0361481      -0.0839000
C2        0.7867813      0.1501617      0.0361481      -0.0839000
H2        0.7754364      0.2224274      0.1790466       0.1128000
H2        0.7672424      0.1084518      0.9982605       0.1128000
H2        0.8894196      0.2306290      0.9982605       0.1128000
C4        0.7994080      0.1984634      0.6356506       0.2567000
N1        0.8498764      0.2480011      0.5955200      -0.3879000
N1        0.7498627      0.1479797      0.5955200      -0.3879000
C2        0.8311386      0.2276535      0.5259933      -0.0839000
C2        0.7702179      0.1667175      0.5259933      -0.0839000
H2        0.7987366      0.1991272      0.6933365       0.1128000
H2        0.7401123      0.1355820      0.4816208       0.1128000
H2        0.8622818      0.2577591      0.4816208       0.1128000
C4        0.4338989      0.2166977      0.1049728       0.2567000
N1        0.3964920      0.1479797      0.0955276      -0.3879000
N1        0.3964920      0.2480011      0.0955276      -0.3879000
C5        0.3316498      0.1351089      0.0791626       0.0000000
C5        0.3316498      0.1960297      0.0791626       0.0000000
H2        0.4876938      0.2435913      0.1185379       0.1128000
C6        0.2724609      0.1968918      0.0642319      -0.0550000
C6        0.2724609      0.0750732      0.0642319      -0.0550000
C6        0.2132721      0.1368408      0.0492935      -0.0550000
C6        0.2132721      0.0759201      0.0492935      -0.0550000
H1        0.2724609      0.2472687      0.0642319       0.1128000
H1        0.2724609      0.0246811      0.0642319       0.1128000
H1        0.1642990      0.1375504      0.0369263       0.1128000
H1        0.1642990      0.0262527      0.0369263       0.1128000
C1        0.4338989      0.2166977      0.6049728       0.4291000
N1        0.3964920      0.1479797      0.5955276      -0.3879000
N1        0.3964920      0.2480011      0.5955276      -0.3879000
C2        0.3316498      0.1351089      0.5791626      -0.0839000
C2        0.3316498      0.1960297      0.5791626      -0.0839000
C3        0.5078125      0.2536469      0.6236191      -0.4526000
H2        0.2902832      0.2059708      0.5687180       0.1128000
H2        0.2902832      0.0838013      0.5687180       0.1128000
H3        0.5137482      0.2566223      0.6839600       0.1310000
H3        0.5331116      0.2251587      0.6005783       0.1310000
H3        0.5331116      0.3074265      0.6005783       0.1310000
C4        0.1002197      0.5498581      0.4057312       0.2567000
N1        0.1116486      0.6055908      0.3674011      -0.3879000
N1        0.1116486      0.5055695      0.3674011      -0.3879000
C2        0.1314774      0.5959473      0.3009872      -0.0839000
C2        0.1314774      0.5350266      0.3009872      -0.0839000
H2        0.0837708      0.5416336      0.4608231       0.1128000
H2        0.1441269      0.5107269      0.2586136       0.1128000
H2        0.1441269      0.6328964      0.2586136       0.1128000
C4        0.0833664      0.5414276      0.8946304       0.2567000
N1        0.1116486      0.6055908      0.8674011      -0.3879000
N1        0.1116486      0.5055695      0.8674011      -0.3879000
C2        0.1606674      0.6105499      0.8202209      -0.0839000
C2        0.1606674      0.5496216      0.8202209      -0.0839000
H2        0.0427094      0.5211029      0.9337692       0.1128000
H2        0.1919479      0.5346375      0.7901077       0.1128000
H2        0.1919479      0.6568069      0.7901077       0.1128000
C4        0.9119492      0.4557266      0.0879135       0.2567000
N1        0.8858414      0.3926620      0.1174011      -0.3879000
N1        0.8858414      0.4926834      0.1174011      -0.3879000
C2        0.8405762      0.3895798      0.1685028      -0.0839000
C2        0.8405762      0.4505005      0.1685028      -0.0839000
H2        0.9494934      0.4745026      0.0455093       0.1128000
H2        0.8117065      0.4666901      0.2011108       0.1128000
H2        0.8117065      0.3445129      0.2011108       0.1128000
C4        0.9225922      0.4610519      0.6054688       0.2567000
N1        0.8858414      0.3926620      0.6174011      -0.3879000
N1        0.8858414      0.4926834      0.6174011      -0.3879000
C2        0.8221436      0.3803635      0.6380615      -0.0839000
C2        0.8221436      0.4412766      0.6380615      -0.0839000
H2        0.9754410      0.4874725      0.5883331       0.1128000
H2        0.7814865      0.4515762      0.6512527       0.1128000
H2        0.7814865      0.3294067      0.6512527       0.1128000
C1        0.4480133      0.5498581      0.4057312       0.4291000
N1        0.3922806      0.5055695      0.3674011      -0.3879000
N1        0.4923019      0.6055908      0.3674011      -0.3879000
C2        0.4019165      0.5350266      0.3009872      -0.0839000
C2        0.4628372      0.5959473      0.3009872      -0.0839000
C3        0.4593124      0.5385590      0.4814224      -0.4526000
H2        0.4871368      0.6328964      0.2586136       0.1128000
H2        0.3649673      0.5107269      0.2586136       0.1128000
H3        0.4360123      0.5618591      0.5177231       0.1310000
H3        0.4341507      0.4814529      0.4922333       0.1310000
H3        0.5164185      0.5637207      0.4922333       0.1310000
C4        0.4480133      0.5498581      0.9057312       0.2567000
N1        0.3922806      0.5055695      0.8674011      -0.3879000
N1        0.4923019      0.6055908      0.8674011      -0.3879000
C5        0.4019165      0.5350266      0.8009872       0.0000000
C5        0.4628372      0.5959473      0.8009872       0.0000000
H2        0.4562378      0.5416336      0.9608231       0.1128000
C6        0.4842377      0.6354523      0.7403564      -0.0550000
C6        0.3624191      0.5136337      0.7403564      -0.0550000
C6        0.4447479      0.6140518      0.6797333      -0.0550000
C6        0.3838196      0.5531235      0.6797333      -0.0550000
H1        0.5346298      0.6858292      0.7403564       0.1128000
H1        0.3120422      0.4632416      0.7403564       0.1128000
H1        0.4624481      0.6467209      0.6295776       0.1128000
H1        0.3511505      0.5354233      0.6295776       0.1128000
C1        0.4553528      0.9123306      0.3379135       0.4291000
N1        0.4923019      0.8862228      0.3674011      -0.3879000
N1        0.3922806      0.8862228      0.3674011      -0.3879000
C2        0.4501266      0.8409729      0.4185028      -0.0839000
C2        0.3892136      0.8409729      0.4185028      -0.0839000
C3        0.4811401      0.9639130      0.2796631      -0.4526000
H2        0.3441391      0.8120880      0.4511185       0.1128000
H2        0.4663162      0.8120880      0.4511185       0.1128000
H3        0.5078735      0.0173569      0.3035965       0.1310000
H3        0.5187836      0.9569092      0.2454071       0.1310000
H3        0.4365005      0.9569092      0.2454071       0.1310000
C4        0.4593277      0.9203033      0.8860703       0.2567000
N1        0.4923019      0.8862228      0.8674011      -0.3879000
N1        0.3922806      0.8862228      0.8674011      -0.3879000
C5        0.4432297      0.8271637      0.8350601       0.0000000
C5        0.3823013      0.8271637      0.8350601       0.0000000
H2        0.4838333      0.9692917      0.9129028       0.1128000
C6        0.3248978      0.7732468      0.8055267      -0.0550000
C6        0.4467163      0.7732468      0.8055267      -0.0550000
C6        0.3283920      0.7193298      0.7760010      -0.0550000
C6        0.3893127      0.7193298      0.7760010      -0.0550000
H1        0.2745209      0.7732468      0.8055267       0.1128000
H1        0.4971008      0.7732468      0.8055267       0.1128000
H1        0.2808990      0.6747284      0.7515717       0.1128000
H1        0.3921967      0.6747284      0.7515717       0.1128000
C4        0.5410614      0.0837402      0.1446304       0.2567000
N1        0.5051880      0.1120224      0.1174011      -0.3879000
N1        0.6052094      0.1120224      0.1174011      -0.3879000
C5        0.5492477      0.1610413      0.0702209       0.0000000
C5        0.6101685      0.1610413      0.0702209       0.0000000
H2        0.5207291      0.0430832      0.1837692       0.1128000
C6        0.6629868      0.2057800      0.0271530      -0.0550000
C6        0.5411682      0.2057800      0.0271530      -0.0550000
C6        0.6549225      0.2505264      0.9840775      -0.0550000
C6        0.5939865      0.2505264      0.9840775      -0.0550000
H1        0.7133789      0.2057800      0.0271530       0.1128000
H1        0.4907913      0.2057800      0.0271530       0.1128000
H1        0.6986237      0.2875519      0.9484482       0.1128000
H1        0.5873108      0.2875519      0.9484482       0.1128000
C4        0.5494766      0.1005936      0.6557312       0.2567000
N1        0.5051880      0.1120224      0.6174011      -0.3879000
N1        0.6052094      0.1120224      0.6174011      -0.3879000
C2        0.5346527      0.1318512      0.5509872      -0.0839000
C2        0.5955734      0.1318512      0.5509872      -0.0839000
H2        0.5412598      0.0841370      0.7108231       0.1128000
H2        0.6325302      0.1445007      0.5086136       0.1128000
H2        0.5103531      0.1445007      0.5086136       0.1128000
C4        0.5389328      0.4589386      0.0959625       0.2567000
N1        0.6052094      0.4926834      0.1174011      -0.3879000
N1        0.5051880      0.3926620      0.1174011      -0.3879000
C2        0.6138611      0.4449310      0.1545486      -0.0839000
C2        0.5529404      0.3840103      0.1545486      -0.0839000
H2        0.5155411      0.4823303      0.0651398       0.1128000
H2        0.5403137      0.3353882      0.1782608       0.1128000
H2        0.6624832      0.4575577      0.1782608       0.1128000
C4        0.5421371      0.4557266      0.5879135       0.2567000
N1        0.6052094      0.4926834      0.6174011      -0.3879000
N1        0.5051880      0.3926620      0.6174011      -0.3879000
C2        0.6082916      0.4505005      0.6685028      -0.0839000
C2        0.5473709      0.3895798      0.6685028      -0.0839000
H2        0.5233688      0.4745026      0.5455093       0.1128000
H2        0.5311813      0.3445129      0.7011108       0.1128000
H2        0.6533585      0.4666901      0.7011108       0.1128000
species    11
Zn  
C1  
N1  
C2  
C3  
H2  
H3  
C4  
C5  
C6  
H1  
output lammps  test
output cif  test
