LAMMPS (10 Mar 2017)
#
units          metal
boundary       p p p
atom_style     full
bond_style     harmonic
angle_style    harmonic
dihedral_style fourier
improper_style none
pair_style     lj/cut/coul/long 12.0
kspace_style   ewald 1e-8
read_data      sod_mim_adsorption_argon.data
  triclinic box = (0 0 0) to (32.554 32.554 32.554) with tilt (0 0 0)
  2 by 2 by 4 MPI processor grid
  reading atoms ...
  2448 atoms
  scanning bonds ...
  4 = max bonds/atom
  scanning angles ...
  12 = max angles/atom
  scanning dihedrals ...
  24 = max dihedrals/atom
  scanning impropers ...
  10 = max impropers/atom
  reading bonds ...
  2496 bonds
  reading angles ...
  9204 angles
  reading dihedrals ...
  14576 dihedrals
  reading impropers ...
  12672 impropers
  4 = max # of 1-2 neighbors
  8 = max # of 1-3 neighbors
  24 = max # of 1-4 neighbors
  28 = max # of special neighbors
pair_modify    mix arithmetic shift yes tail no table 0
special_bonds  lj 0.0 0.0  0.00000 coul 0.0 0.0  0.00000
#   1     65.3700027  # Zn
#   2     12.0107002  # C1
#   3     14.0067396  # N1
#   4     12.0107002  # C2
#   5     12.0107002  # C3
#   6      1.0079401  # H2
#   7      1.0079401  # H3
#   8     39.9480019  # Ar
#
variable    TK equal   77.0
variable    RandomSeed equal 123456789
#
dump        traj_all   all     custom 100  all.lammpstrj       element xs ys zs
dump_modify traj_all   element Zn C N C C H H Ar  first yes sort id
dump        traj all xyz 10 traj.xyz
dump_modify traj element Zn C N C C H H Ar
#
velocity    all create ${TK} ${RandomSeed}
velocity    all create 77 ${RandomSeed}
velocity    all create 77 123456789
variable    dt     equal 0.0005
variable    tdamp  equal 100*${dt}
variable    tdamp  equal 100*0.0005
fix         2 all langevin ${TK} ${TK} ${tdamp} ${RandomSeed}
fix         2 all langevin 77 ${TK} ${tdamp} ${RandomSeed}
fix         2 all langevin 77 77 ${tdamp} ${RandomSeed}
fix         2 all langevin 77 77 0.05 ${RandomSeed}
fix         2 all langevin 77 77 0.05 123456789
fix         3 all nve
thermo      100
run         1000
Ewald initialization ...
WARNING: System is not charge neutral, net charge = -0.4992 (../kspace.cpp:302)
WARNING: Using polynomial approximation for long-range coulomb (../kspace.cpp:321)
  G vector (1/distance) = 0.312061
  estimated absolute RMS force accuracy = 1.44923e-07
  estimated relative force accuracy = 1.00644e-08
  KSpace vectors: actual max1d max3d = 4585 13 9841
                  kxmax kymax kzmax  = 13 13 13
Neighbor list info ...
  update every 1 steps, delay 10 steps, check yes
  max neighbors/atom: 2000, page size: 100000
  master list distance cutoff = 14
  ghost atom cutoff = 14
  binsize = 7, bins = 5 5 5
  1 neighbor lists, perpetual/occasional/extra = 1 0 0
  (1) pair lj/cut/coul/long, perpetual
      attributes: half, newton on
      pair build: half/bin/newton/tri
      stencil: half/bin/3d/newton/tri
      bin: standard
WARNING: Inconsistent image flags (../domain.cpp:785)
Memory usage per processor = 45.8452 Mbytes
Step Temp E_pair E_mol TotEng Press 
       0           77    1030.8409    575.11643    1630.3124   -20705.295 
     100    209.64216     755.9976    171.10197    993.40929    29738.733 
     200    99.999526    754.21284    118.32597    904.16862    23931.699 
     300    80.017897    751.91738    112.93586    890.16286    26338.126 
     400    79.071876     752.1447    108.99458    886.14968    23189.377 
     500     77.87458    750.96888    108.42791    884.02848    23640.002 
     600    76.539857    750.16826    107.34786    881.72564    23095.936 
     700    77.924355     750.2762     106.3809    881.30454    23042.734 
     800    78.058164    749.72395    106.25528    880.66899    22317.033 
     900    78.485395    749.34875    105.27152    879.44517    22176.165 
    1000     78.62303    748.55751    104.83885    878.26479      22513.5 
Loop time of 31.3057 on 16 procs for 1000 steps with 2448 atoms

Performance: 2.760 ns/day, 8.696 hours/ns, 31.943 timesteps/s
95.2% CPU use with 16 MPI tasks x no OpenMP threads

MPI task timing breakdown:
Section |  min time  |  avg time  |  max time  |%varavg| %total
---------------------------------------------------------------
Pair    | 6.7029     | 7.2011     | 7.6996     |   9.7 | 23.00
Bond    | 0.31626    | 0.33294    | 0.35306    |   2.3 |  1.06
Kspace  | 21.409     | 21.941     | 22.62      |   7.9 | 70.09
Neigh   | 0.072185   | 0.072648   | 0.073057   |   0.1 |  0.23
Comm    | 0.73497    | 1.4742     | 2.1965     |  31.2 |  4.71
Output  | 0.17869    | 0.19251    | 0.20288    |   1.5 |  0.61
Modify  | 0.024292   | 0.027489   | 0.030929   |   1.0 |  0.09
Other   |            | 0.06334    |            |       |  0.20

Nlocal:    153 ave 165 max 144 min
Histogram: 4 2 0 2 3 0 0 1 3 1
Nghost:    4606.31 ave 4649 max 4567 min
Histogram: 2 1 2 3 0 2 2 2 0 2
Neighs:    62272.8 ave 67028 max 58769 min
Histogram: 3 3 0 1 4 0 0 4 0 1

Total # of neighbors = 996365
Ave neighs/atom = 407.012
Ave special neighs/atom = 10.9804
Neighbor list builds = 9
Dangerous builds = 0
undump      traj_all
undump      traj
Total wall time: 0:00:31
