ITEM: TIMESTEP
0
ITEM: NUMBER OF ATOMS
1440
ITEM: BOX BOUNDS xy xz yz pp pp pp
-8.1100110999999995e+00 4.0664001499999998e+01 0.0000000000000000e+00
0.0000000000000000e+00 2.4170000099999999e+01 -8.1100110999999995e+00
0.0000000000000000e+00 2.9739004099999999e+01 0.0000000000000000e+00
ITEM: ATOMS element xs ys zs 
Si 0.152351 0.455849 0.128098 
Si 0.174201 0.169052 0.0655975 
Si 0.347298 0.0472488 0.1063 
Si 0.347648 0.455849 0.0385666 
Si 0.325797 0.169052 0.101067 
Si 0.326104 0.165947 0.200073 
Si 0.274453 0.247147 0.216873 
Si 0.347649 0.0441513 0.205231 
Si 0.152703 0.452751 0.227043 
Si 0.174202 0.330948 0.232269 
Si 0.173897 0.334053 0.13327 
Si 0.225548 0.252853 0.11647 
Si 0.402703 0.297249 0.0603638 
Si 0.424201 0.419052 0.0655975 
Si 0.423896 0.415947 0.299927 
Si 0.0972977 0.297249 0.1063 
Si 0.0976479 0.205849 0.0385666 
Si 0.0761039 0.415947 0.200073 
Si 0.097297 0.202751 0.272957 
Si 0.0976488 0.294151 0.205231 
Si 0.0761035 0.084053 0.0334015 
Si 0.402703 0.202751 0.227043 
Si 0.402351 0.294151 0.294769 
Si 0.424202 0.0809479 0.232269 
Si 0.423897 0.084053 0.13327 
Si 0.475548 0.00285339 0.11647 
Si 0.152352 0.455849 0.461433 
Si 0.173897 0.165947 0.63327 
Si 0.347297 0.0472488 0.439636 
Si 0.347649 0.455849 0.371902 
Si 0.326103 0.165947 0.533401 
Si 0.274452 0.247147 0.550201 
Si 0.347298 0.452751 0.6063 
Si 0.347648 0.0441513 0.538567 
Si 0.325797 0.330948 0.601067 
Si 0.152351 0.0441513 0.628098 
Si 0.174201 0.330948 0.565598 
Si 0.173896 0.334053 0.466599 
Si 0.225547 0.252853 0.449799 
Si 0.402702 0.297249 0.3937 
Si 0.424203 0.419052 0.398933 
Si 0.423897 0.415947 0.63327 
Si 0.475548 0.497147 0.61647 
Si 0.0972969 0.297249 0.439636 
Si 0.0976491 0.205849 0.371902 
Si 0.0761035 0.415947 0.533401 
Si 0.0972977 0.202751 0.6063 
Si 0.0976479 0.294151 0.538567 
Si 0.0761032 0.084053 0.36673 
Si 0.402351 0.294151 0.628098 
Si 0.152703 0.0472488 0.727043 
Si 0.152351 0.455849 0.794769 
Si 0.225548 0.247147 0.949799 
Si 0.347649 0.455849 0.705231 
Si 0.325798 0.169052 0.767731 
Si 0.326103 0.165947 0.86673 
Si 0.347297 0.452751 0.939636 
Si 0.325799 0.330948 0.934402 
Si 0.274453 0.252853 0.716873 
Si 0.174203 0.330948 0.898933 
Si 0.225547 0.252853 0.783127 
Si 0.402703 0.297249 0.727043 
Si 0.402351 0.205849 0.794769 
Si 0.097297 0.297249 0.772957 
Si 0.0757982 0.419052 0.767731 
Si 0.0761032 0.415947 0.86673 
Si 0.0244521 0.497147 0.88353 
Si 0.0972969 0.202751 0.939636 
Si 0.0976491 0.294151 0.871902 
Si 0.0757985 0.0809479 0.934402 
Si 0.402702 0.202751 0.8937 
Si 0.152703 0.547249 0.0603638 
Si 0.152351 0.955849 0.128098 
Si 0.174201 0.669052 0.0655975 
Si 0.173896 0.665947 0.299927 
Si 0.347298 0.547249 0.1063 
Si 0.347648 0.955849 0.0385666 
Si 0.325797 0.669052 0.101067 
Si 0.326104 0.665947 0.200073 
Si 0.347649 0.544151 0.205231 
Si 0.325798 0.830948 0.267731 
Si 0.326104 0.834053 0.0334015 
Si 0.152703 0.952751 0.227043 
Si 0.152351 0.544151 0.294769 
Si 0.174202 0.830948 0.232269 
Si 0.173897 0.834053 0.13327 
Si 0.402703 0.797249 0.0603638 
Si 0.402351 0.705849 0.128098 
Si 0.424201 0.919052 0.0655975 
Si 0.475547 0.997147 0.283127 
Si 0.0976479 0.705849 0.0385666 
Si 0.0757974 0.919052 0.101067 
Si 0.097297 0.702751 0.272957 
Si 0.0976488 0.794151 0.205231 
Si 0.0757982 0.580948 0.267731 
Si 0.0761035 0.584053 0.0334015 
Si 0.0244525 0.502853 0.0502014 
Si 0.402351 0.794151 0.294769 
Si 0.174203 0.669052 0.398933 
Si 0.347297 0.547249 0.439636 
Si 0.347649 0.955849 0.371902 
Si 0.347298 0.952751 0.6063 
Si 0.325797 0.830948 0.601067 
Si 0.225547 0.752853 0.449799 
Si 0.402702 0.797249 0.3937 
Si 0.423897 0.915947 0.63327 
Si 0.0972969 0.797249 0.439636 
Si 0.0976491 0.705849 0.371902 
Si 0.0761035 0.915947 0.533401 
Si 0.0972977 0.702751 0.6063 
Si 0.0976479 0.794151 0.538567 
Si 0.0761032 0.584053 0.36673 
Si 0.402703 0.702751 0.560364 
Si 0.402351 0.794151 0.628098 
Si 0.424201 0.580948 0.565598 
Si 0.475548 0.502853 0.449799 
Si 0.152351 0.955849 0.794769 
Si 0.174202 0.669052 0.732269 
Si 0.173896 0.665947 0.966599 
Si 0.225548 0.747147 0.949799 
Si 0.347649 0.955849 0.705231 
Si 0.325798 0.669052 0.767731 
Si 0.326103 0.665947 0.86673 
Si 0.347297 0.952751 0.939636 
Si 0.325799 0.830948 0.934402 
Si 0.152702 0.952751 0.8937 
Si 0.152352 0.544151 0.961433 
Si 0.174203 0.830948 0.898933 
Si 0.173896 0.834053 0.799927 
Si 0.402703 0.797249 0.727043 
Si 0.424202 0.919052 0.732269 
Si 0.423896 0.915947 0.966599 
Si 0.097297 0.797249 0.772957 
Si 0.0976488 0.705849 0.705231 
Si 0.0757982 0.919052 0.767731 
Si 0.0976491 0.794151 0.871902 
Si 0.0757985 0.580948 0.934402 
Si 0.402702 0.702751 0.8937 
Si 0.424203 0.580948 0.898933 
Si 0.652703 0.0472488 0.0603638 
Si 0.652351 0.455849 0.128098 
Si 0.674201 0.169052 0.0655975 
Si 0.673896 0.165947 0.299927 
Si 0.725547 0.247147 0.283127 
Si 0.847298 0.0472488 0.1063 
Si 0.825797 0.169052 0.101067 
Si 0.826104 0.165947 0.200073 
Si 0.847649 0.0441513 0.205231 
Si 0.825798 0.330948 0.267731 
Si 0.826104 0.334053 0.0334015 
Si 0.652703 0.452751 0.227043 
Si 0.652351 0.0441513 0.294769 
Si 0.674202 0.330948 0.232269 
Si 0.673897 0.334053 0.13327 
Si 0.725548 0.252853 0.11647 
Si 0.902351 0.205849 0.128098 
Si 0.924201 0.419052 0.0655975 
Si 0.975547 0.497147 0.283127 
Si 0.597298 0.297249 0.1063 
Si 0.597648 0.205849 0.0385666 
Si 0.576104 0.415947 0.200073 
Si 0.597297 0.202751 0.272957 
Si 0.597649 0.294151 0.205231 
Si 0.576104 0.084053 0.0334015 
Si 0.652352 0.455849 0.461433 
Si 0.673897 0.165947 0.63327 
Si 0.847297 0.0472488 0.439636 
Si 0.826104 0.165947 0.533401 
Si 0.774452 0.247147 0.550201 
Si 0.847298 0.452751 0.6063 
Si 0.825797 0.330948 0.601067 
Si 0.774452 0.252853 0.38353 
Si 0.652351 0.0441513 0.628098 
Si 0.902352 0.205849 0.461433 
Si 0.924203 0.419052 0.398933 
Si 0.923897 0.415947 0.63327 
Si 0.975548 0.497147 0.61647 
Si 0.597649 0.205849 0.371902 
Si 0.576104 0.415947 0.533401 
Si 0.597298 0.202751 0.6063 
Si 0.575797 0.0809479 0.601067 
Si 0.902703 0.202751 0.560364 
Si 0.902351 0.294151 0.628098 
Si 0.924201 0.0809479 0.565598 
Si 0.652351 0.455849 0.794769 
Si 0.674202 0.169052 0.732269 
Si 0.673896 0.165947 0.966599 
Si 0.847297 0.0472488 0.772957 
Si 0.825798 0.169052 0.767731 
Si 0.826103 0.165947 0.86673 
Si 0.847297 0.452751 0.939636 
Si 0.825799 0.330948 0.934402 
Si 0.826104 0.334053 0.700073 
Si 0.652702 0.452751 0.8937 
Si 0.652352 0.0441513 0.961433 
Si 0.902703 0.297249 0.727043 
Si 0.902351 0.205849 0.794769 
Si 0.924202 0.419052 0.732269 
Si 0.597297 0.297249 0.772957 
Si 0.575798 0.419052 0.767731 
Si 0.576103 0.415947 0.86673 
Si 0.524452 0.497147 0.88353 
Si 0.597297 0.202751 0.939636 
Si 0.597649 0.294151 0.871902 
Si 0.576104 0.084053 0.700073 
Si 0.524453 0.00285339 0.716873 
Si 0.924203 0.0809479 0.898933 
Si 0.674201 0.669052 0.0655975 
Si 0.673896 0.665947 0.299927 
Si 0.725547 0.747147 0.283127 
Si 0.847298 0.547249 0.1063 
Si 0.847648 0.955849 0.0385666 
Si 0.774453 0.747147 0.216873 
Si 0.847297 0.952751 0.272957 
Si 0.847649 0.544151 0.205231 
Si 0.825798 0.830948 0.267731 
Si 0.652703 0.952751 0.227043 
Si 0.652351 0.544151 0.294769 
Si 0.674202 0.830948 0.232269 
Si 0.902703 0.797249 0.0603638 
Si 0.902351 0.705849 0.128098 
Si 0.924201 0.919052 0.0655975 
Si 0.923896 0.915947 0.299927 
Si 0.975547 0.997147 0.283127 
Si 0.597298 0.797249 0.1063 
Si 0.597648 0.705849 0.0385666 
Si 0.575797 0.919052 0.101067 
Si 0.576104 0.915947 0.200073 
Si 0.597297 0.702751 0.272957 
Si 0.597649 0.794151 0.205231 
Si 0.575798 0.580948 0.267731 
Si 0.576104 0.584053 0.0334015 
Si 0.524452 0.502853 0.0502014 
Si 0.902703 0.702751 0.227043 
Si 0.902351 0.794151 0.294769 
Si 0.924202 0.580948 0.232269 
Si 0.652352 0.955849 0.461433 
Si 0.674203 0.669052 0.398933 
Si 0.847297 0.547249 0.439636 
Si 0.825799 0.669052 0.434402 
Si 0.826104 0.665947 0.533401 
Si 0.826103 0.834053 0.36673 
Si 0.774452 0.752853 0.38353 
Si 0.652703 0.952751 0.560364 
Si 0.652351 0.544151 0.628098 
Si 0.673896 0.834053 0.466599 
Si 0.902702 0.797249 0.3937 
Si 0.924203 0.919052 0.398933 
Si 0.923897 0.915947 0.63327 
Si 0.597649 0.705849 0.371902 
Si 0.576104 0.915947 0.533401 
Si 0.597298 0.702751 0.6063 
Si 0.597648 0.794151 0.538567 
Si 0.923897 0.584053 0.466599 
Si 0.652703 0.547249 0.727043 
Si 0.652351 0.955849 0.794769 
Si 0.674202 0.669052 0.732269 
Si 0.673896 0.665947 0.966599 
Si 0.847297 0.547249 0.772957 
Si 0.847649 0.955849 0.705231 
Si 0.825798 0.669052 0.767731 
Si 0.847297 0.952751 0.939636 
Si 0.847649 0.544151 0.871902 
Si 0.825799 0.830948 0.934402 
Si 0.826104 0.834053 0.700073 
Si 0.774453 0.752853 0.716873 
Si 0.652702 0.952751 0.8937 
Si 0.674203 0.830948 0.898933 
Si 0.725547 0.752853 0.783127 
Si 0.902703 0.797249 0.727043 
Si 0.902351 0.705849 0.794769 
Si 0.924202 0.919052 0.732269 
Si 0.923896 0.915947 0.966599 
Si 0.597297 0.797249 0.772957 
Si 0.597649 0.705849 0.705231 
Si 0.575798 0.919052 0.767731 
Si 0.576103 0.915947 0.86673 
Si 0.524452 0.997147 0.88353 
Si 0.597649 0.794151 0.871902 
Si 0.575799 0.580948 0.934402 
Si 0.524453 0.502853 0.716873 
Si 0.902352 0.794151 0.961433 
Si 0.924203 0.580948 0.898933 
Si 0.923896 0.584053 0.799927 
Si 0.152703 0.0472488 0.0603638 
Si 0.173896 0.165947 0.299927 
Si 0.225547 0.247147 0.283127 
Si 0.347297 0.452751 0.272957 
Si 0.325798 0.330948 0.267731 
Si 0.326104 0.334053 0.0334015 
Si 0.274452 0.252853 0.0502014 
Si 0.152351 0.0441513 0.294769 
Si 0.402351 0.205849 0.128098 
Si 0.475547 0.497147 0.283127 
Si 0.0757974 0.419052 0.101067 
Si 0.0244528 0.497147 0.216873 
Si 0.0757982 0.0809479 0.267731 
Si 0.0244525 0.00285339 0.0502014 
Si 0.152702 0.0472488 0.3937 
Si 0.174203 0.169052 0.398933 
Si 0.225548 0.247147 0.61647 
Si 0.325799 0.169052 0.434402 
Si 0.326103 0.334053 0.36673 
Si 0.274452 0.252853 0.38353 
Si 0.152703 0.452751 0.560364 
Si 0.402352 0.205849 0.461433 
Si 0.0757985 0.419052 0.434402 
Si 0.0244525 0.497147 0.550201 
Si 0.0757974 0.0809479 0.601067 
Si 0.0244521 0.00285339 0.38353 
Si 0.402703 0.202751 0.560364 
Si 0.424201 0.0809479 0.565598 
Si 0.423896 0.084053 0.466599 
Si 0.475548 0.00285339 0.449799 
Si 0.174202 0.169052 0.732269 
Si 0.173896 0.165947 0.966599 
Si 0.347297 0.0472488 0.772957 
Si 0.274452 0.247147 0.88353 
Si 0.347649 0.0441513 0.871902 
Si 0.326104 0.334053 0.700073 
Si 0.152702 0.452751 0.8937 
Si 0.152352 0.0441513 0.961433 
Si 0.173896 0.334053 0.799927 
Si 0.424202 0.419052 0.732269 
Si 0.423896 0.415947 0.966599 
Si 0.475548 0.497147 0.949799 
Si 0.0976488 0.205849 0.705231 
Si 0.0761039 0.084053 0.700073 
Si 0.0244528 0.00285339 0.716873 
Si 0.402352 0.294151 0.961433 
Si 0.424203 0.0809479 0.898933 
Si 0.423896 0.084053 0.799927 
Si 0.475547 0.00285339 0.783127 
Si 0.225547 0.747147 0.283127 
Si 0.274453 0.747147 0.216873 
Si 0.347297 0.952751 0.272957 
Si 0.274452 0.752853 0.0502014 
Si 0.225548 0.752853 0.11647 
Si 0.423896 0.915947 0.299927 
Si 0.0972977 0.797249 0.1063 
Si 0.0761039 0.915947 0.200073 
Si 0.0244528 0.997147 0.216873 
Si 0.402703 0.702751 0.227043 
Si 0.424202 0.580948 0.232269 
Si 0.423897 0.584053 0.13327 
Si 0.475548 0.502853 0.11647 
Si 0.152702 0.547249 0.3937 
Si 0.152352 0.955849 0.461433 
Si 0.173897 0.665947 0.63327 
Si 0.225548 0.747147 0.61647 
Si 0.325799 0.669052 0.434402 
Si 0.326103 0.665947 0.533401 
Si 0.274452 0.747147 0.550201 
Si 0.347648 0.544151 0.538567 
Si 0.326103 0.834053 0.36673 
Si 0.274452 0.752853 0.38353 
Si 0.152703 0.952751 0.560364 
Si 0.152351 0.544151 0.628098 
Si 0.174201 0.830948 0.565598 
Si 0.173896 0.834053 0.466599 
Si 0.402352 0.705849 0.461433 
Si 0.424203 0.919052 0.398933 
Si 0.475548 0.997147 0.61647 
Si 0.0757985 0.919052 0.434402 
Si 0.0244525 0.997147 0.550201 
Si 0.0757974 0.580948 0.601067 
Si 0.0244521 0.502853 0.38353 
Si 0.423896 0.584053 0.466599 
Si 0.152703 0.547249 0.727043 
Si 0.347297 0.547249 0.772957 
Si 0.274452 0.747147 0.88353 
Si 0.347649 0.544151 0.871902 
Si 0.326104 0.834053 0.700073 
Si 0.274453 0.752853 0.716873 
Si 0.225547 0.752853 0.783127 
Si 0.402351 0.705849 0.794769 
Si 0.475548 0.997147 0.949799 
Si 0.0761032 0.915947 0.86673 
Si 0.0244521 0.997147 0.88353 
Si 0.0972969 0.702751 0.939636 
Si 0.0761039 0.584053 0.700073 
Si 0.0244528 0.502853 0.716873 
Si 0.402352 0.794151 0.961433 
Si 0.423896 0.584053 0.799927 
Si 0.475547 0.502853 0.783127 
Si 0.847648 0.455849 0.0385666 
Si 0.774453 0.247147 0.216873 
Si 0.847297 0.452751 0.272957 
Si 0.774452 0.252853 0.0502014 
Si 0.902703 0.297249 0.0603638 
Si 0.923896 0.415947 0.299927 
Si 0.575797 0.419052 0.101067 
Si 0.524453 0.497147 0.216873 
Si 0.575798 0.0809479 0.267731 
Si 0.524452 0.00285339 0.0502014 
Si 0.902703 0.202751 0.227043 
Si 0.902351 0.294151 0.294769 
Si 0.924202 0.0809479 0.232269 
Si 0.923897 0.084053 0.13327 
Si 0.975548 0.00285339 0.11647 
Si 0.652702 0.0472488 0.3937 
Si 0.674203 0.169052 0.398933 
Si 0.725548 0.247147 0.61647 
Si 0.847649 0.455849 0.371902 
Si 0.825799 0.169052 0.434402 
Si 0.847648 0.0441513 0.538567 
Si 0.826103 0.334053 0.36673 
Si 0.652703 0.452751 0.560364 
Si 0.674201 0.330948 0.565598 
Si 0.673896 0.334053 0.466599 
Si 0.725548 0.252853 0.449799 
Si 0.902702 0.297249 0.3937 
Si 0.597297 0.297249 0.439636 
Si 0.575798 0.419052 0.434402 
Si 0.524452 0.497147 0.550201 
Si 0.597648 0.294151 0.538567 
Si 0.576103 0.084053 0.36673 
Si 0.524452 0.00285339 0.38353 
Si 0.923897 0.084053 0.466599 
Si 0.975547 0.00285339 0.449799 
Si 0.652703 0.0472488 0.727043 
Si 0.725548 0.247147 0.949799 
Si 0.847649 0.455849 0.705231 
Si 0.774452 0.247147 0.88353 
Si 0.847649 0.0441513 0.871902 
Si 0.774453 0.252853 0.716873 
Si 0.674203 0.330948 0.898933 
Si 0.673896 0.334053 0.799927 
Si 0.725547 0.252853 0.783127 
Si 0.923896 0.415947 0.966599 
Si 0.975548 0.497147 0.949799 
Si 0.597649 0.205849 0.705231 
Si 0.575799 0.0809479 0.934402 
Si 0.902702 0.202751 0.8937 
Si 0.902352 0.294151 0.961433 
Si 0.923896 0.084053 0.799927 
Si 0.975547 0.00285339 0.783127 
Si 0.652703 0.547249 0.0603638 
Si 0.652351 0.955849 0.128098 
Si 0.825797 0.669052 0.101067 
Si 0.826104 0.665947 0.200073 
Si 0.826104 0.834053 0.0334015 
Si 0.774452 0.752853 0.0502014 
Si 0.673897 0.834053 0.13327 
Si 0.725548 0.752853 0.11647 
Si 0.524453 0.997147 0.216873 
Si 0.923897 0.584053 0.13327 
Si 0.975548 0.502853 0.11647 
Si 0.652702 0.547249 0.3937 
Si 0.673897 0.665947 0.63327 
Si 0.725548 0.747147 0.61647 
Si 0.847649 0.955849 0.371902 
Si 0.774452 0.747147 0.550201 
Si 0.847298 0.952751 0.6063 
Si 0.847648 0.544151 0.538567 
Si 0.825797 0.830948 0.601067 
Si 0.674201 0.830948 0.565598 
Si 0.725548 0.752853 0.449799 
Si 0.902352 0.705849 0.461433 
Si 0.975548 0.997147 0.61647 
Si 0.597297 0.797249 0.439636 
Si 0.575798 0.919052 0.434402 
Si 0.524452 0.997147 0.550201 
Si 0.575797 0.580948 0.601067 
Si 0.576103 0.584053 0.36673 
Si 0.524452 0.502853 0.38353 
Si 0.902703 0.702751 0.560364 
Si 0.902351 0.794151 0.628098 
Si 0.924201 0.580948 0.565598 
Si 0.975547 0.502853 0.449799 
Si 0.725548 0.747147 0.949799 
Si 0.826103 0.665947 0.86673 
Si 0.774452 0.747147 0.88353 
Si 0.652352 0.544151 0.961433 
Si 0.673896 0.834053 0.799927 
Si 0.975548 0.997147 0.949799 
Si 0.597297 0.702751 0.939636 
Si 0.576104 0.584053 0.700073 
Si 0.902702 0.702751 0.8937 
Si 0.975547 0.502853 0.783127 
O 0.174454 0.400398 0.1287 
O 0.113097 0.443047 0.103127 
O 0.113449 0.0608978 0.0578308 
O 0.202247 0.198097 0.105927 
O 0.174751 0.103104 0.0729675 
O 0.183402 0.182602 0.0189972 
O 0.25 0.25 0 
O 0.201553 0.193199 0.277367 
O 0.155647 0.0246506 0.0123978 
O 0.25 0.242851 0.25 
O 0.166054 0.00244904 0.0997696 
O 0.325546 0.400398 0.0379562 
O 0.386902 0.443047 0.06353 
O 0.386552 0.0608978 0.108833 
O 0.297752 0.198097 0.06073 
O 0.325248 0.103104 0.0936966 
O 0.316596 0.182602 0.147667 
O 0.249999 0.25 0.166656 
O 0.298447 0.193199 0.222633 
O 0.344352 0.0246506 0.154266 
O 0.333947 0.00244904 0.0669022 
O 0.325547 0.0996017 0.204643 
O 0.386902 0.0569534 0.230202 
O 0.38655 0.439102 0.275497 
O 0.297753 0.301903 0.227402 
O 0.325248 0.396896 0.260368 
O 0.316597 0.317398 0.314331 
O 0.298446 0.306801 0.0559692 
O 0.344353 0.475349 0.32093 
O 0.250001 0.257149 0.0833435 
O 0.333945 0.497551 0.233566 
O 0.174453 0.0996017 0.295357 
O 0.113098 0.0569534 0.269798 
O 0.11345 0.439102 0.224503 
O 0.202247 0.301903 0.272598 
O 0.174752 0.396896 0.239632 
O 0.183403 0.317398 0.185669 
O 0.201554 0.306801 0.110703 
O 0.155647 0.475349 0.17907 
O 0.166055 0.497551 0.266434 
O 0.424454 0.150398 0.1287 
O 0.363097 0.193047 0.103127 
O 0.363449 0.310898 0.0578308 
O 0.452247 0.448097 0.105927 
O 0.424751 0.353104 0.0729675 
O 0.433402 0.432602 0.0189972 
O 0 0 0 
O 0.451553 0.443199 0.277367 
O 0.405647 0.274651 0.0123978 
O 1 0.492851 0.25 
O 0.416054 0.252449 0.0997696 
O 0.0755455 0.150398 0.0379562 
O 0.136902 0.193047 0.06353 
O 0.136552 0.310898 0.108833 
O 0.0477524 0.448097 0.06073 
O 0.075248 0.353104 0.0936966 
O 0.0665964 0.432602 0.147667 
O 0.999999 0 0.166656 
O 0.0484473 0.443199 0.222633 
O 0.094352 0.274651 0.154266 
O 0.0839467 0.252449 0.0669022 
O 0.0755469 0.349602 0.204643 
O 0.136902 0.306953 0.230202 
O 0.13655 0.189102 0.275497 
O 0.0477527 0.0519028 0.227402 
O 0.0752484 0.146896 0.260368 
O 0.0665972 0.0673981 0.314331 
O 0.0484465 0.0568008 0.0559692 
O 0.0943528 0.225349 0.32093 
O 6.99405e-07 0.00714874 0.0833435 
O 0.0839455 0.247551 0.233566 
O 0.424453 0.349602 0.295357 
O 0.363098 0.306953 0.269798 
O 0.36345 0.189102 0.224503 
O 0.452247 0.0519028 0.272598 
O 0.424752 0.146896 0.239632 
O 0.433403 0.0673981 0.185669 
O 0.451554 0.0568008 0.110703 
O 0.405647 0.225349 0.17907 
O 0.416055 0.247551 0.266434 
O 0.174454 0.400398 0.462044 
O 0.113098 0.443047 0.43647 
O 0.113448 0.0608978 0.391167 
O 0.202248 0.198097 0.43927 
O 0.174752 0.103104 0.406303 
O 0.183404 0.182602 0.352333 
O 0.250001 0.25 0.333344 
O 0.201554 0.193199 0.610702 
O 0.155648 0.0246506 0.345734 
O 0.250001 0.242851 0.583344 
O 0.166053 0.00244904 0.433098 
O 0.325546 0.400398 0.3713 
O 0.386903 0.443047 0.396873 
O 0.386551 0.0608978 0.442169 
O 0.297753 0.198097 0.394073 
O 0.325249 0.103104 0.427032 
O 0.316598 0.182602 0.481003 
O 0.25 0.25 0.5 
O 0.298446 0.193199 0.555969 
O 0.344353 0.0246506 0.487602 
O 0.333946 0.00244904 0.40023 
O 0.325546 0.0996017 0.537956 
O 0.386902 0.0569534 0.56353 
O 0.386552 0.439102 0.608833 
O 0.297752 0.301903 0.56073 
O 0.325248 0.396896 0.593697 
O 0.316596 0.317398 0.647667 
O 0.298446 0.306801 0.389297 
O 0.344352 0.475349 0.654266 
O 0.249999 0.257149 0.416656 
O 0.333947 0.497551 0.566902 
O 0.174454 0.0996017 0.6287 
O 0.113097 0.0569534 0.603127 
O 0.113449 0.439102 0.557831 
O 0.202247 0.301903 0.605927 
O 0.174751 0.396896 0.572968 
O 0.183402 0.317398 0.518997 
O 0.201554 0.306801 0.444031 
O 0.155647 0.475349 0.512398 
O 0.166054 0.497551 0.59977 
O 0.424454 0.150398 0.462044 
O 0.363098 0.193047 0.43647 
O 0.363448 0.310898 0.391167 
O 0.452248 0.448097 0.43927 
O 0.424752 0.353104 0.406303 
O 0.433404 0.432602 0.352333 
O 7.01976e-07 0 0.333344 
O 0.451554 0.443199 0.610702 
O 0.405648 0.274651 0.345734 
O 7.05888e-07 0.492851 0.583344 
O 0.416053 0.252449 0.433098 
O 0.0755462 0.150398 0.3713 
O 0.136903 0.193047 0.396873 
O 0.136551 0.310898 0.442169 
O 0.0477531 0.448097 0.394073 
O 0.0752492 0.353104 0.427032 
O 0.0665975 0.432602 0.481003 
O 1 0 0.5 
O 0.0484465 0.443199 0.555969 
O 0.0943532 0.274651 0.487602 
O 0.0839463 0.252449 0.40023 
O 0.0755455 0.349602 0.537956 
O 0.136902 0.306953 0.56353 
O 0.136552 0.189102 0.608833 
O 0.0477524 0.0519028 0.56073 
O 0.075248 0.146896 0.593697 
O 0.0665964 0.0673981 0.647667 
O 0.0484462 0.0568008 0.389297 
O 0.094352 0.225349 0.654266 
O 0.999999 0.00714874 0.416656 
O 0.0839467 0.247551 0.566902 
O 0.424454 0.349602 0.6287 
O 0.363097 0.306953 0.603127 
O 0.363449 0.189102 0.557831 
O 0.452247 0.0519028 0.605927 
O 0.424751 0.146896 0.572968 
O 0.433402 0.0673981 0.518997 
O 0.451553 0.0568008 0.444031 
O 0.405647 0.225349 0.512398 
O 0.416054 0.247551 0.59977 
O 0.174453 0.400398 0.795357 
O 0.113098 0.443047 0.769798 
O 0.11345 0.0608978 0.724503 
O 0.202247 0.198097 0.772598 
O 0.174752 0.103104 0.739632 
O 0.183403 0.182602 0.685669 
O 0.249999 0.25 0.666657 
O 0.201554 0.193199 0.944031 
O 0.155647 0.0246506 0.67907 
O 0.249999 0.242851 0.916656 
O 0.166055 0.00244904 0.766434 
O 0.325547 0.400398 0.704643 
O 0.386902 0.443047 0.730202 
O 0.38655 0.0608978 0.775497 
O 0.297753 0.198097 0.727402 
O 0.325248 0.103104 0.760368 
O 0.316597 0.182602 0.814331 
O 0.250001 0.25 0.833344 
O 0.298446 0.193199 0.889297 
O 0.344353 0.0246506 0.82093 
O 0.333945 0.00244904 0.733566 
O 0.325546 0.0996017 0.8713 
O 0.386903 0.0569534 0.896874 
O 0.386551 0.439102 0.942169 
O 0.297753 0.301903 0.894074 
O 0.325249 0.396896 0.927032 
O 0.316598 0.317398 0.981003 
O 0.298447 0.306801 0.722633 
O 0.344353 0.475349 0.987602 
O 0.25 0.257149 0.75 
O 0.333946 0.497551 0.90023 
O 0.174454 0.0996017 0.962044 
O 0.113098 0.0569534 0.93647 
O 0.113448 0.439102 0.891167 
O 0.202248 0.301903 0.93927 
O 0.174752 0.396896 0.906303 
O 0.183404 0.317398 0.852333 
O 0.201553 0.306801 0.777367 
O 0.155648 0.475349 0.845734 
O 0.166053 0.497551 0.933098 
O 0.424453 0.150398 0.795357 
O 0.363098 0.193047 0.769798 
O 0.36345 0.310898 0.724503 
O 0.452247 0.448097 0.772598 
O 0.424752 0.353104 0.739632 
O 0.433403 0.432602 0.685669 
O 0.999999 0 0.666657 
O 0.451553 0.443199 0.944031 
O 0.405647 0.274651 0.67907 
O 0.999999 0.492851 0.916656 
O 0.416055 0.252449 0.766434 
O 0.0755469 0.150398 0.704643 
O 0.136902 0.193047 0.730202 
O 0.13655 0.310898 0.775497 
O 0.0477527 0.448097 0.727402 
O 0.0752484 0.353104 0.760368 
O 0.0665972 0.432602 0.814331 
O 7.0354e-07 0 0.833344 
O 0.0484462 0.443199 0.889297 
O 0.0943528 0.274651 0.82093 
O 0.0839455 0.252449 0.733566 
O 0.0755462 0.349602 0.8713 
O 0.136903 0.306953 0.896874 
O 0.136551 0.189102 0.942169 
O 0.0477531 0.0519028 0.894074 
O 0.0752492 0.146896 0.927032 
O 0.0665975 0.0673981 0.981003 
O 0.0484473 0.0568008 0.722633 
O 0.0943532 0.225349 0.987602 
O 2.34764e-09 0.00714874 0.75 
O 0.0839463 0.247551 0.90023 
O 0.424454 0.349602 0.962044 
O 0.363098 0.306953 0.93647 
O 0.363448 0.189102 0.891167 
O 0.452248 0.0519028 0.93927 
O 0.424752 0.146896 0.906303 
O 0.433404 0.0673981 0.852333 
O 0.451553 0.0568008 0.777367 
O 0.405648 0.225349 0.845734 
O 0.416053 0.247551 0.933098 
O 0.174454 0.900398 0.1287 
O 0.113097 0.943047 0.103127 
O 0.113449 0.560898 0.0578308 
O 0.202247 0.698097 0.105927 
O 0.174751 0.603104 0.0729675 
O 0.183402 0.682602 0.0189972 
O 0.25 0.75 0 
O 0.201553 0.693199 0.277367 
O 0.155647 0.524651 0.0123978 
O 0.25 0.742851 0.25 
O 0.166054 0.502449 0.0997696 
O 0.325546 0.900398 0.0379562 
O 0.386902 0.943047 0.06353 
O 0.386552 0.560898 0.108833 
O 0.297752 0.698097 0.06073 
O 0.325248 0.603104 0.0936966 
O 0.316596 0.682602 0.147667 
O 0.249999 0.75 0.166656 
O 0.298447 0.693199 0.222633 
O 0.344352 0.524651 0.154266 
O 0.333947 0.502449 0.0669022 
O 0.325547 0.599602 0.204643 
O 0.386902 0.556953 0.230202 
O 0.38655 0.939102 0.275497 
O 0.297753 0.801903 0.227402 
O 0.325248 0.896896 0.260368 
O 0.316597 0.817398 0.314331 
O 0.298446 0.806801 0.0559692 
O 0.344353 0.975349 0.32093 
O 0.250001 0.757149 0.0833435 
O 0.333945 0.997551 0.233566 
O 0.174453 0.599602 0.295357 
O 0.113098 0.556953 0.269798 
O 0.11345 0.939102 0.224503 
O 0.202247 0.801903 0.272598 
O 0.174752 0.896896 0.239632 
O 0.183403 0.817398 0.185669 
O 0.201554 0.806801 0.110703 
O 0.155647 0.975349 0.17907 
O 0.166055 0.997551 0.266434 
O 0.424454 0.650398 0.1287 
O 0.363097 0.693047 0.103127 
O 0.363449 0.810898 0.0578308 
O 0.452247 0.948097 0.105927 
O 0.424751 0.853104 0.0729675 
O 0.433402 0.932602 0.0189972 
O 0 0.5 0 
O 0.451553 0.943199 0.277367 
O 0.405647 0.774651 0.0123978 
O 1 0.992851 0.25 
O 0.416054 0.752449 0.0997696 
O 0.0755455 0.650398 0.0379562 
O 0.136902 0.693047 0.06353 
O 0.136552 0.810898 0.108833 
O 0.0477524 0.948097 0.06073 
O 0.075248 0.853104 0.0936966 
O 0.0665964 0.932602 0.147667 
O 0.999999 0.5 0.166656 
O 0.0484473 0.943199 0.222633 
O 0.094352 0.774651 0.154266 
O 0.0839467 0.752449 0.0669022 
O 0.0755469 0.849602 0.204643 
O 0.136902 0.806953 0.230202 
O 0.13655 0.689102 0.275497 
O 0.0477527 0.551903 0.227402 
O 0.0752484 0.646896 0.260368 
O 0.0665972 0.567398 0.314331 
O 0.0484465 0.556801 0.0559692 
O 0.0943528 0.725349 0.32093 
O 6.99405e-07 0.507149 0.0833435 
O 0.0839455 0.747551 0.233566 
O 0.424453 0.849602 0.295357 
O 0.363098 0.806953 0.269798 
O 0.36345 0.689102 0.224503 
O 0.452247 0.551903 0.272598 
O 0.424752 0.646896 0.239632 
O 0.433403 0.567398 0.185669 
O 0.451554 0.556801 0.110703 
O 0.405647 0.725349 0.17907 
O 0.416055 0.747551 0.266434 
O 0.174454 0.900398 0.462044 
O 0.113098 0.943047 0.43647 
O 0.113448 0.560898 0.391167 
O 0.202248 0.698097 0.43927 
O 0.174752 0.603104 0.406303 
O 0.183404 0.682602 0.352333 
O 0.250001 0.75 0.333344 
O 0.201554 0.693199 0.610702 
O 0.155648 0.524651 0.345734 
O 0.250001 0.742851 0.583344 
O 0.166053 0.502449 0.433098 
O 0.325546 0.900398 0.3713 
O 0.386903 0.943047 0.396873 
O 0.386551 0.560898 0.442169 
O 0.297753 0.698097 0.394073 
O 0.325249 0.603104 0.427032 
O 0.316598 0.682602 0.481003 
O 0.25 0.75 0.5 
O 0.298446 0.693199 0.555969 
O 0.344353 0.524651 0.487602 
O 0.333946 0.502449 0.40023 
O 0.325546 0.599602 0.537956 
O 0.386902 0.556953 0.56353 
O 0.386552 0.939102 0.608833 
O 0.297752 0.801903 0.56073 
O 0.325248 0.896896 0.593697 
O 0.316596 0.817398 0.647667 
O 0.298446 0.806801 0.389297 
O 0.344352 0.975349 0.654266 
O 0.249999 0.757149 0.416656 
O 0.333947 0.997551 0.566902 
O 0.174454 0.599602 0.6287 
O 0.113097 0.556953 0.603127 
O 0.113449 0.939102 0.557831 
O 0.202247 0.801903 0.605927 
O 0.174751 0.896896 0.572968 
O 0.183402 0.817398 0.518997 
O 0.201554 0.806801 0.444031 
O 0.155647 0.975349 0.512398 
O 0.166054 0.997551 0.59977 
O 0.424454 0.650398 0.462044 
O 0.363098 0.693047 0.43647 
O 0.363448 0.810898 0.391167 
O 0.452248 0.948097 0.43927 
O 0.424752 0.853104 0.406303 
O 0.433404 0.932602 0.352333 
O 7.01976e-07 0.5 0.333344 
O 0.451554 0.943199 0.610702 
O 0.405648 0.774651 0.345734 
O 7.05888e-07 0.992851 0.583344 
O 0.416053 0.752449 0.433098 
O 0.0755462 0.650398 0.3713 
O 0.136903 0.693047 0.396873 
O 0.136551 0.810898 0.442169 
O 0.0477531 0.948097 0.394073 
O 0.0752492 0.853104 0.427032 
O 0.0665975 0.932602 0.481003 
O 1 0.5 0.5 
O 0.0484465 0.943199 0.555969 
O 0.0943532 0.774651 0.487602 
O 0.0839463 0.752449 0.40023 
O 0.0755455 0.849602 0.537956 
O 0.136902 0.806953 0.56353 
O 0.136552 0.689102 0.608833 
O 0.0477524 0.551903 0.56073 
O 0.075248 0.646896 0.593697 
O 0.0665964 0.567398 0.647667 
O 0.0484462 0.556801 0.389297 
O 0.094352 0.725349 0.654266 
O 0.999999 0.507149 0.416656 
O 0.0839467 0.747551 0.566902 
O 0.424454 0.849602 0.6287 
O 0.363097 0.806953 0.603127 
O 0.363449 0.689102 0.557831 
O 0.452247 0.551903 0.605927 
O 0.424751 0.646896 0.572968 
O 0.433402 0.567398 0.518997 
O 0.451553 0.556801 0.444031 
O 0.405647 0.725349 0.512398 
O 0.416054 0.747551 0.59977 
O 0.174453 0.900398 0.795357 
O 0.113098 0.943047 0.769798 
O 0.11345 0.560898 0.724503 
O 0.202247 0.698097 0.772598 
O 0.174752 0.603104 0.739632 
O 0.183403 0.682602 0.685669 
O 0.249999 0.75 0.666657 
O 0.201554 0.693199 0.944031 
O 0.155647 0.524651 0.67907 
O 0.249999 0.742851 0.916656 
O 0.166055 0.502449 0.766434 
O 0.325547 0.900398 0.704643 
O 0.386902 0.943047 0.730202 
O 0.38655 0.560898 0.775497 
O 0.297753 0.698097 0.727402 
O 0.325248 0.603104 0.760368 
O 0.316597 0.682602 0.814331 
O 0.250001 0.75 0.833344 
O 0.298446 0.693199 0.889297 
O 0.344353 0.524651 0.82093 
O 0.333945 0.502449 0.733566 
O 0.325546 0.599602 0.8713 
O 0.386903 0.556953 0.896874 
O 0.386551 0.939102 0.942169 
O 0.297753 0.801903 0.894074 
O 0.325249 0.896896 0.927032 
O 0.316598 0.817398 0.981003 
O 0.298447 0.806801 0.722633 
O 0.344353 0.975349 0.987602 
O 0.25 0.757149 0.75 
O 0.333946 0.997551 0.90023 
O 0.174454 0.599602 0.962044 
O 0.113098 0.556953 0.93647 
O 0.113448 0.939102 0.891167 
O 0.202248 0.801903 0.93927 
O 0.174752 0.896896 0.906303 
O 0.183404 0.817398 0.852333 
O 0.201553 0.806801 0.777367 
O 0.155648 0.975349 0.845734 
O 0.166053 0.997551 0.933098 
O 0.424453 0.650398 0.795357 
O 0.363098 0.693047 0.769798 
O 0.36345 0.810898 0.724503 
O 0.452247 0.948097 0.772598 
O 0.424752 0.853104 0.739632 
O 0.433403 0.932602 0.685669 
O 0.999999 0.5 0.666657 
O 0.451553 0.943199 0.944031 
O 0.405647 0.774651 0.67907 
O 0.999999 0.992851 0.916656 
O 0.416055 0.752449 0.766434 
O 0.0755469 0.650398 0.704643 
O 0.136902 0.693047 0.730202 
O 0.13655 0.810898 0.775497 
O 0.0477527 0.948097 0.727402 
O 0.0752484 0.853104 0.760368 
O 0.0665972 0.932602 0.814331 
O 7.0354e-07 0.5 0.833344 
O 0.0484462 0.943199 0.889297 
O 0.0943528 0.774651 0.82093 
O 0.0839455 0.752449 0.733566 
O 0.0755462 0.849602 0.8713 
O 0.136903 0.806953 0.896874 
O 0.136551 0.689102 0.942169 
O 0.0477531 0.551903 0.894074 
O 0.0752492 0.646896 0.927032 
O 0.0665975 0.567398 0.981003 
O 0.0484473 0.556801 0.722633 
O 0.0943532 0.725349 0.987602 
O 2.34764e-09 0.507149 0.75 
O 0.0839463 0.747551 0.90023 
O 0.424454 0.849602 0.962044 
O 0.363098 0.806953 0.93647 
O 0.363448 0.689102 0.891167 
O 0.452248 0.551903 0.93927 
O 0.424752 0.646896 0.906303 
O 0.433404 0.567398 0.852333 
O 0.451553 0.556801 0.777367 
O 0.405648 0.725349 0.845734 
O 0.416053 0.747551 0.933098 
O 0.674454 0.400398 0.1287 
O 0.613097 0.443047 0.103127 
O 0.613449 0.0608978 0.0578308 
O 0.702247 0.198097 0.105927 
O 0.674751 0.103104 0.0729675 
O 0.683402 0.182602 0.0189972 
O 0.75 0.25 0 
O 0.701553 0.193199 0.277367 
O 0.655647 0.0246506 0.0123978 
O 0.75 0.242851 0.25 
O 0.666054 0.00244904 0.0997696 
O 0.825545 0.400398 0.0379562 
O 0.886902 0.443047 0.06353 
O 0.886552 0.0608978 0.108833 
O 0.797752 0.198097 0.06073 
O 0.825248 0.103104 0.0936966 
O 0.816596 0.182602 0.147667 
O 0.749999 0.25 0.166656 
O 0.798447 0.193199 0.222633 