Created on  1  4 2017 17:55: 8
  
        1440  atoms
        1920  bonds
        7673  angles
       11513  dihedrals
       11520  impropers
  
           2  atom types
           1  bond types
           2  angle types
           1  dihedral types
           1  improper types
  
   0.00000000       40.6640015      xlo xhi
   0.00000000       24.1700001      ylo yhi
   0.00000000       29.7390041      zlo zhi
   0.00000000      -8.11001110       0.00000000      xy xz yz
  
Masses
  
   1     28.0855007  # Si  
   2     15.9994001  # O   

Bond Coeffs

   1 23.2998723607699 1.620  # Si  O

Angle Coeffs

   1 6.79996274906518 109.470  # O   Si  O
   2 2.21998783866549 149.800  # Si  O   Si

Pair Coeffs

   1 0.008640000405 2.200  # Si  Si
   2 0.003240000001 1.770  # O   O  
  
Atoms
  
    1   1   1  0.7000000      5.1562681     11.0178947      3.8095663
    2   1   1  0.7000000      6.5516524      4.0859385      1.9508787
    3   1   1  0.7000000     13.2605133      1.1420325      3.1612561
    4   1   1  0.7000000     13.8240366     11.0178947      1.1470335
    5   1   1  0.7000000     12.4286528      4.0859385      3.0057211
    6   1   1  0.7000000     11.6379604      4.0110116      5.9498825
    7   1   1  0.7000000      9.4014177      5.9736156      6.4494977
    8   1   1  0.7000000     12.4724226      1.0671054      6.1033359
    9   1   1  0.7000000      4.3680964     10.9429674      6.7519431
   10   1   1  0.7000000      5.1999569      7.9990611      6.9074783
   11   1   1  0.7000000      5.9906487      8.0739889      3.9633169
   12   1   1  0.7000000      8.2271919      6.1113844      3.4637020
   13   1   1  0.7000000     15.8858728      7.1845326      1.7950463
   14   1   1  0.7000000     16.7176533     10.1284389      1.9508787
   15   1   1  0.7000000     14.8050346     10.0535116      8.9196196
   16   1   1  0.7000000      3.0945132      7.1845326      3.1612561
   17   1   1  0.7000000      3.6580367      4.9753947      1.1470335
   18   1   1  0.7000000      1.4719607     10.0535116      5.9498825
   19   1   1  0.7000000      1.7428987      4.9004674      8.1175585
   20   1   1  0.7000000      2.3064222      7.1096053      6.1033359
   21   1   1  0.7000000      2.8236563      2.0314884      0.9932827
   22   1   1  0.7000000     14.5340958      4.9004674      6.7519431
   23   1   1  0.7000000     13.9705744      7.1096053      8.7661667
   24   1   1  0.7000000     15.3659573      1.9565614      6.9074783
   25   1   1  0.7000000     16.1566486      2.0314884      3.9633169
   26   1   1  0.7000000     18.3931942      0.0688845      3.4637020
   27   1   1  0.7000000      2.4529579     11.0178947     13.7224693
   28   1   1  0.7000000      1.9356427      4.0110116     18.8328190
   29   1   1  0.7000000     10.5571222      1.1420325     13.0744553
   30   1   1  0.7000000     11.1207266     11.0178947     11.0599356
   31   1   1  0.7000000      8.9346504      4.0110116     15.8627844
   32   1   1  0.7000000      6.6981072      5.9736156     16.3624001
   33   1   1  0.7000000      9.2055073     10.9429674     18.0307579
   34   1   1  0.7000000      9.7690315      1.0671054     16.0165348
   35   1   1  0.7000000      8.3736477      7.9990611     17.8752232
   36   1   1  0.7000000      1.1012626      1.0671054     18.6790676
   37   1   1  0.7000000      2.4966469      7.9990611     16.8203793
   38   1   1  0.7000000      3.2873385      8.0739889     13.8762197
   39   1   1  0.7000000      5.5238819      6.1113844     13.3766041
   40   1   1  0.7000000     13.1824818      7.1845326     11.7082462
   41   1   1  0.7000000     14.0143433     10.1284389     11.8637810
   42   1   1  0.7000000     12.1016436     10.0535116     18.8328190
   43   1   1  0.7000000     14.3381882     12.0161152     18.3332024
   44   1   1  0.7000000      0.3911221      7.1845326     13.0744553
   45   1   1  0.7000000      0.9547267      4.9753947     11.0599356
   46   1   1  0.7000000     -1.2313495     10.0535116     15.8627844
   47   1   1  0.7000000     -0.9604921      4.9004674     18.0307579
   48   1   1  0.7000000     -0.3969686      7.1096053     16.0165348
   49   1   1  0.7000000      0.1203461      2.0314884     10.9061852
   50   1   1  0.7000000     11.2672644      7.1096053     18.6790676
   51   1   1  0.7000000      0.3130913      1.1420325     21.6214447
   52   1   1  0.7000000     -0.2504330     11.0178947     23.6356678
   53   1   1  0.7000000      1.4688768      5.9736156     28.2461071
   54   1   1  0.7000000      8.4174166     11.0178947     20.9728374
   55   1   1  0.7000000      7.0220332      4.0859385     22.8315258
   56   1   1  0.7000000      6.2313409      4.0110116     25.7756863
   57   1   1  0.7000000      6.5021167     10.9429674     27.9439583
   58   1   1  0.7000000      5.6703377      7.9990611     27.7881260
   59   1   1  0.7000000      5.3464117      6.1113844     21.3190002
   60   1   1  0.7000000     -0.2066631      7.9990611     26.7332840
   61   1   1  0.7000000      2.8205724      6.1113844     23.2895069
   62   1   1  0.7000000     10.4790907      7.1845326     21.6214447
   63   1   1  0.7000000      9.9155693      4.9753947     23.6356678
   64   1   1  0.7000000     -2.3121071      7.1845326     22.9870605
   65   1   1  0.7000000     -3.1439674     10.1284389     22.8315258
   66   1   1  0.7000000     -3.9346590     10.0535116     25.7756863
   67   1   1  0.7000000     -6.1712031     12.0161152     26.2753029
   68   1   1  0.7000000     -3.6638832      4.9004674     27.9439583
   69   1   1  0.7000000     -3.1002791      7.1096053     25.9294376
   70   1   1  0.7000000     -4.4956627      1.9565614     27.7881260
   71   1   1  0.7000000      9.1274757      4.9004674     26.5777473
   72   1   1  0.7000000      5.7198734     13.2270317      1.7950463
   73   1   1  0.7000000      5.1562681     23.1028938      3.8095663
   74   1   1  0.7000000      6.5516524     16.1709385      1.9508787
   75   1   1  0.7000000      4.6390343     16.0960121      8.9196196
   76   1   1  0.7000000     13.2605133     13.2270317      3.1612561
   77   1   1  0.7000000     13.8240366     23.1028938      1.1470335
   78   1   1  0.7000000     12.4286528     16.1709385      3.0057211
   79   1   1  0.7000000     11.6379604     16.0960121      5.9498825
   80   1   1  0.7000000     12.4724226     13.1521053      6.1033359
   81   1   1  0.7000000     11.0770388     20.0840626      7.9620237
   82   1   1  0.7000000     12.9896564     20.1589890      0.9932827
   83   1   1  0.7000000      4.3680964     23.0279675      6.7519431
   84   1   1  0.7000000      3.8045723     13.1521053      8.7661667
   85   1   1  0.7000000      5.1999569     20.0840626      6.9074783
   86   1   1  0.7000000      5.9906487     20.1589890      3.9633169
   87   1   1  0.7000000     15.8858728     19.2695312      1.7950463
   88   1   1  0.7000000     15.3222694     17.0603943      3.8095663
   89   1   1  0.7000000     16.7176533     22.2134380      1.9508787
   90   1   1  0.7000000     17.0415802     24.1011162      8.4200039
   91   1   1  0.7000000      3.6580367     17.0603943      1.1470335
   92   1   1  0.7000000      2.2626526     22.2134380      3.0057211
   93   1   1  0.7000000      1.7428987     16.9854679      8.1175585
   94   1   1  0.7000000      2.3064222     19.1946049      6.1033359
   95   1   1  0.7000000      0.9110382     14.0415621      7.9620237
   96   1   1  0.7000000      2.8236563     14.1164885      0.9932827
   97   1   1  0.7000000      0.5871123     12.1538849      1.4928980
   98   1   1  0.7000000     13.9705744     19.1946049      8.7661667
   99   1   1  0.7000000      3.8483424     16.1709385     11.8637810
  100   1   1  0.7000000     10.5571222     13.2270317     13.0744553
  101   1   1  0.7000000     11.1207266     23.1028938     11.0599356
  102   1   1  0.7000000      9.2055073     23.0279675     18.0307579
  103   1   1  0.7000000      8.3736477     20.0840626     17.8752232
  104   1   1  0.7000000      5.5238819     18.1963844     13.3766041
  105   1   1  0.7000000     13.1824818     19.2695312     11.7082462
  106   1   1  0.7000000     12.1016436     22.1385117     18.8328190
  107   1   1  0.7000000      0.3911221     19.2695312     13.0744553
  108   1   1  0.7000000      0.9547267     17.0603943     11.0599356
  109   1   1  0.7000000     -1.2313495     22.1385117     15.8627844
  110   1   1  0.7000000     -0.9604921     16.9854679     18.0307579
  111   1   1  0.7000000     -0.3969686     19.1946049     16.0165348
  112   1   1  0.7000000      0.1203461     14.1164885     10.9061852
  113   1   1  0.7000000     11.8308668     16.9854679     16.6645489
  114   1   1  0.7000000     11.2672644     19.1946049     18.6790676
  115   1   1  0.7000000     12.6626472     14.0415621     16.8203793
  116   1   1  0.7000000     15.6898832     12.1538849     13.3766041
  117   1   1  0.7000000     -0.2504330     23.1028938     23.6356678
  118   1   1  0.7000000      1.1449513     16.1709385     21.7769814
  119   1   1  0.7000000     -0.7676668     16.0960121     28.7457218
  120   1   1  0.7000000      1.4688768     18.0586147     28.2461071
  121   1   1  0.7000000      8.4174166     23.1028938     20.9728374
  122   1   1  0.7000000      7.0220332     16.1709385     22.8315258
  123   1   1  0.7000000      6.2313409     16.0960121     25.7756863
  124   1   1  0.7000000      6.5021167     23.0279675     27.9439583
  125   1   1  0.7000000      5.6703377     20.0840626     27.7881260
  126   1   1  0.7000000     -1.0385237     23.0279675     26.5777473
  127   1   1  0.7000000     -1.6020479     13.1521053     28.5919704
  128   1   1  0.7000000     -0.2066631     20.0840626     26.7332840
  129   1   1  0.7000000      0.5840287     20.1589890     23.7891216
  130   1   1  0.7000000     10.4790907     19.2695312     21.6214447
  131   1   1  0.7000000     11.3109522     22.2134380     21.7769814
  132   1   1  0.7000000      9.3983345     22.1385117     28.7457218
  133   1   1  0.7000000     -2.3121071     19.2695312     22.9870605
  134   1   1  0.7000000     -1.7485836     17.0603943     20.9728374
  135   1   1  0.7000000     -3.1439674     22.2134380     22.8315258
  136   1   1  0.7000000     -3.1002791     19.1946049     25.9294376
  137   1   1  0.7000000     -4.4956627     14.0415621     27.7881260
  138   1   1  0.7000000      9.1274757     16.9854679     26.5777473
  139   1   1  0.7000000      9.9593372     14.0415621     26.7332840
  140   1   1  0.7000000     26.0518723      1.1420325      1.7950463
  141   1   1  0.7000000     25.4882698     11.0178947      3.8095663
  142   1   1  0.7000000     26.8836536      4.0859385      1.9508787
  143   1   1  0.7000000     24.9710350      4.0110116      8.9196196
  144   1   1  0.7000000     27.2075806      5.9736156      8.4200039
  145   1   1  0.7000000     33.5925140      1.1420325      3.1612561
  146   1   1  0.7000000     32.7606544      4.0859385      3.0057211
  147   1   1  0.7000000     31.9699631      4.0110116      5.9498825
  148   1   1  0.7000000     32.8044243      1.0671054      6.1033359
  149   1   1  0.7000000     31.4090405      7.9990611      7.9620237
  150   1   1  0.7000000     33.3216591      8.0739889      0.9932827
  151   1   1  0.7000000     24.7000961     10.9429674      6.7519431
  152   1   1  0.7000000     24.1365738      1.0671054      8.7661667
  153   1   1  0.7000000     25.5319576      7.9990611      6.9074783
  154   1   1  0.7000000     26.3226490      8.0739889      3.9633169
  155   1   1  0.7000000     28.5591946      6.1113844      3.4637020
  156   1   1  0.7000000     35.6542702      4.9753947      3.8095663
  157   1   1  0.7000000     37.0496521     10.1284389      1.9508787
  158   1   1  0.7000000     37.3735771     12.0161152      8.4200039
  159   1   1  0.7000000     23.4265137      7.1845326      3.1612561
  160   1   1  0.7000000     23.9900360      4.9753947      1.1470335
  161   1   1  0.7000000     21.8039608     10.0535116      5.9498825
  162   1   1  0.7000000     22.0748997      4.9004674      8.1175585
  163   1   1  0.7000000     22.6384220      7.1096053      6.1033359
  164   1   1  0.7000000     23.1556568      2.0314884      0.9932827
  165   1   1  0.7000000     22.7849598     11.0178947     13.7224693
  166   1   1  0.7000000     22.2676430      4.0110116     18.8328190
  167   1   1  0.7000000     30.8891239      1.1420325     13.0744553
  168   1   1  0.7000000     29.2666531      4.0110116     15.8627844
  169   1   1  0.7000000     27.0301075      5.9736156     16.3624001
  170   1   1  0.7000000     29.5375099     10.9429674     18.0307579
  171   1   1  0.7000000     28.7056503      7.9990611     17.8752232
  172   1   1  0.7000000     28.3818035      6.1113844     11.4057999
  173   1   1  0.7000000     21.4332657      1.0671054     18.6790676
  174   1   1  0.7000000     32.9509583      4.9753947     13.7224693
  175   1   1  0.7000000     34.3463440     10.1284389     11.8637810
  176   1   1  0.7000000     32.4336433     10.0535116     18.8328190
  177   1   1  0.7000000     34.6701889     12.0161152     18.3332024
  178   1   1  0.7000000     21.2867260      4.9753947     11.0599356
  179   1   1  0.7000000     19.1006508     10.0535116     15.8627844
  180   1   1  0.7000000     19.3715096      4.9004674     18.0307579
  181   1   1  0.7000000     18.5396461      1.9565614     17.8752232
  182   1   1  0.7000000     32.1628685      4.9004674     16.6645489
  183   1   1  0.7000000     31.5992622      7.1096053     18.6790676
  184   1   1  0.7000000     32.9946480      1.9565614     16.8203793
  185   1   1  0.7000000     20.0815697     11.0178947     23.6356678
  186   1   1  0.7000000     21.4769516      4.0859385     21.7769814
  187   1   1  0.7000000     19.5643349      4.0110116     28.7457218
  188   1   1  0.7000000     28.1858940      1.1420325     22.9870605
  189   1   1  0.7000000     27.3540344      4.0859385     22.8315258
  190   1   1  0.7000000     26.5633430      4.0110116     25.7756863
  191   1   1  0.7000000     26.8341179     10.9429674     27.9439583
  192   1   1  0.7000000     26.0023384      7.9990611     27.7881260
  193   1   1  0.7000000     27.9149570      8.0739889     20.8193855
  194   1   1  0.7000000     19.2934761     10.9429674     26.5777473
  195   1   1  0.7000000     18.7299538      1.0671054     28.5919704
  196   1   1  0.7000000     30.8110924      7.1845326     21.6214447
  197   1   1  0.7000000     30.2475681      4.9753947     23.6356678
  198   1   1  0.7000000     31.6429520     10.1284389     21.7769814
  199   1   1  0.7000000     18.0198936      7.1845326     22.9870605
  200   1   1  0.7000000     17.1880322     10.1284389     22.8315258
  201   1   1  0.7000000     16.3973408     10.0535116     25.7756863
  202   1   1  0.7000000     14.1607971     12.0161152     26.2753029
  203   1   1  0.7000000     16.6681175      4.9004674     27.9439583
  204   1   1  0.7000000     17.2317200      7.1096053     25.9294376
  205   1   1  0.7000000     17.7489548      2.0314884     20.8193855
  206   1   1  0.7000000     15.5124111      0.0688845     21.3190002
  207   1   1  0.7000000     30.2913361      1.9565614     26.7332840
  208   1   1  0.7000000     26.8836536     16.1709385      1.9508787
  209   1   1  0.7000000     24.9710350     16.0960121      8.9196196
  210   1   1  0.7000000     27.2075806     18.0586147      8.4200039
  211   1   1  0.7000000     33.5925140     13.2270317      3.1612561
  212   1   1  0.7000000     34.1560402     23.1028938      1.1470335
  213   1   1  0.7000000     29.7334175     18.0586147      6.4494977
  214   1   1  0.7000000     32.2409019     23.0279675      8.1175585
  215   1   1  0.7000000     32.8044243     13.1521053      6.1033359
  216   1   1  0.7000000     31.4090405     20.0840626      7.9620237
  217   1   1  0.7000000     24.7000961     23.0279675      6.7519431
  218   1   1  0.7000000     24.1365738     13.1521053      8.7661667
  219   1   1  0.7000000     25.5319576     20.0840626      6.9074783
  220   1   1  0.7000000     36.2178726     19.2695312      1.7950463
  221   1   1  0.7000000     35.6542702     17.0603943      3.8095663
  222   1   1  0.7000000     37.0496521     22.2134380      1.9508787
  223   1   1  0.7000000     35.1370354     22.1385117      8.9196196
  224   1   1  0.7000000     37.3735771     24.1011162      8.4200039
  225   1   1  0.7000000     23.4265137     19.2695312      3.1612561
  226   1   1  0.7000000     23.9900360     17.0603943      1.1470335
  227   1   1  0.7000000     22.5946522     22.2134380      3.0057211
  228   1   1  0.7000000     21.8039608     22.1385117      5.9498825
  229   1   1  0.7000000     22.0748997     16.9854679      8.1175585
  230   1   1  0.7000000     22.6384220     19.1946049      6.1033359
  231   1   1  0.7000000     21.2430382     14.0415621      7.9620237
  232   1   1  0.7000000     23.1556568     14.1164885      0.9932827
  233   1   1  0.7000000     20.9191132     12.1538849      1.4928980
  234   1   1  0.7000000     34.8660965     16.9854679      6.7519431
  235   1   1  0.7000000     34.3025742     19.1946049      8.7661667
  236   1   1  0.7000000     35.6979561     14.0415621      6.9074783
  237   1   1  0.7000000     22.7849598     23.1028938     13.7224693
  238   1   1  0.7000000     24.1803436     16.1709385     11.8637810
  239   1   1  0.7000000     30.8891239     13.2270317     13.0744553
  240   1   1  0.7000000     30.0573444     16.1709385     12.9186230
  241   1   1  0.7000000     29.2666531     16.0960121     15.8627844
  242   1   1  0.7000000     30.6183491     20.1589890     10.9061852
  243   1   1  0.7000000     28.3818035     18.1963844     11.4057999
  244   1   1  0.7000000     21.9968681     23.0279675     16.6645489
  245   1   1  0.7000000     21.4332657     13.1521053     18.6790676
  246   1   1  0.7000000     23.6193390     20.1589890     13.8762197
  247   1   1  0.7000000     33.5144806     19.2695312     11.7082462
  248   1   1  0.7000000     34.3463440     22.2134380     11.8637810
  249   1   1  0.7000000     32.4336433     22.1385117     18.8328190
  250   1   1  0.7000000     21.2867260     17.0603943     11.0599356
  251   1   1  0.7000000     19.1006508     22.1385117     15.8627844
  252   1   1  0.7000000     19.3715096     16.9854679     18.0307579
  253   1   1  0.7000000     19.9350319     19.1946049     16.0165348
  254   1   1  0.7000000     33.7853394     14.1164885     13.8762197
  255   1   1  0.7000000     20.6450920     13.2270317     21.6214447
  256   1   1  0.7000000     20.0815697     23.1028938     23.6356678
  257   1   1  0.7000000     21.4769516     16.1709385     21.7769814
  258   1   1  0.7000000     19.5643349     16.0960121     28.7457218
  259   1   1  0.7000000     28.1858940     13.2270317     22.9870605
  260   1   1  0.7000000     28.7494183     23.1028938     20.9728374
  261   1   1  0.7000000     27.3540344     16.1709385     22.8315258
  262   1   1  0.7000000     26.8341179     23.0279675     27.9439583
  263   1   1  0.7000000     27.3977222     13.1521053     25.9294376
  264   1   1  0.7000000     26.0023384     20.0840626     27.7881260
  265   1   1  0.7000000     27.9149570     20.1589890     20.8193855
  266   1   1  0.7000000     25.6784115     18.1963844     21.3190002
  267   1   1  0.7000000     19.2934761     23.0279675     26.5777473
  268   1   1  0.7000000     20.1253376     20.0840626     26.7332840
  269   1   1  0.7000000     23.1525745     18.1963844     23.2895069
  270   1   1  0.7000000     30.8110924     19.2695312     21.6214447
  271   1   1  0.7000000     30.2475681     17.0603943     23.6356678
  272   1   1  0.7000000     31.6429520     22.2134380     21.7769814
  273   1   1  0.7000000     29.7303333     22.1385117     28.7457218
  274   1   1  0.7000000     18.0198936     19.2695312     22.9870605
  275   1   1  0.7000000     18.5834160     17.0603943     20.9728374
  276   1   1  0.7000000     17.1880322     22.2134380     22.8315258
  277   1   1  0.7000000     16.3973408     22.1385117     25.7756863
  278   1   1  0.7000000     14.1607971     24.1011162     26.2753029
  279   1   1  0.7000000     17.2317200     19.1946049     25.9294376
  280   1   1  0.7000000     15.8363371     14.0415621     27.7881260
  281   1   1  0.7000000     15.5124111     12.1538849     21.3190002
  282   1   1  0.7000000     28.8959522     19.1946049     28.5919704
  283   1   1  0.7000000     30.2913361     14.0415621     26.7332840
  284   1   1  0.7000000     31.0820274     14.1164885     23.7891216
  285   1   1  0.7000000      5.7198734      1.1420325      1.7950463
  286   1   1  0.7000000      4.6390343      4.0110116      8.9196196
  287   1   1  0.7000000      6.8755779      5.9736156      8.4200039
  288   1   1  0.7000000     11.9088984     10.9429674      8.1175585
  289   1   1  0.7000000     11.0770388      7.9990611      7.9620237
  290   1   1  0.7000000     12.9896564      8.0739889      0.9932827
  291   1   1  0.7000000     10.7531128      6.1113844      1.4928980
  292   1   1  0.7000000      3.8045723      1.0671054      8.7661667
  293   1   1  0.7000000     15.3222694      4.9753947      3.8095663
  294   1   1  0.7000000     17.0415802     12.0161152      8.4200039
  295   1   1  0.7000000      2.2626526     10.1284389      3.0057211
  296   1   1  0.7000000     -0.7645832     12.0161152      6.4494977
  297   1   1  0.7000000      0.9110382      1.9565614      7.9620237
  298   1   1  0.7000000      0.5871123      0.0688845      1.4928980
  299   1   1  0.7000000      3.0164821      1.1420325     11.7082462
  300   1   1  0.7000000      3.8483424      4.0859385     11.8637810
  301   1   1  0.7000000      4.1721869      5.9736156     18.3332024
  302   1   1  0.7000000      9.7253437      4.0859385     12.9186230
  303   1   1  0.7000000     10.2863464      8.0739889     10.9061852
  304   1   1  0.7000000      8.0498028      6.1113844     11.4057999
  305   1   1  0.7000000      1.6648674     10.9429674     16.6645489
  306   1   1  0.7000000     12.6189594      4.9753947     13.7224693
  307   1   1  0.7000000     -0.4406574     10.1284389     12.9186230
  308   1   1  0.7000000     -3.4678934     12.0161152     16.3624001
  309   1   1  0.7000000     -1.7923529      1.9565614     17.8752232
  310   1   1  0.7000000     -2.1161976      0.0688845     11.4057999
  311   1   1  0.7000000     11.8308668      4.9004674     16.6645489
  312   1   1  0.7000000     12.6626472      1.9565614     16.8203793
  313   1   1  0.7000000     13.4533396      2.0314884     13.8762197
  314   1   1  0.7000000     15.6898832      0.0688845     13.3766041
  315   1   1  0.7000000      1.1449513      4.0859385     21.7769814
  316   1   1  0.7000000     -0.7676668      4.0110116     28.7457218
  317   1   1  0.7000000      7.8538928      1.1420325     22.9870605
  318   1   1  0.7000000      3.9947972      5.9736156     26.2753029
  319   1   1  0.7000000      7.0657210      1.0671054     25.9294376
  320   1   1  0.7000000      7.5829549      8.0739889     20.8193855
  321   1   1  0.7000000     -1.0385237     10.9429674     26.5777473
  322   1   1  0.7000000     -1.6020479      1.0671054     28.5919704
  323   1   1  0.7000000      0.5840287      8.0739889     23.7891216
  324   1   1  0.7000000     11.3109522     10.1284389     21.7769814
  325   1   1  0.7000000      9.3983345     10.0535116     28.7457218
  326   1   1  0.7000000     11.6348782     12.0161152     28.2461071
  327   1   1  0.7000000     -1.7485836      4.9753947     20.9728374
  328   1   1  0.7000000     -2.5830450      2.0314884     20.8193855
  329   1   1  0.7000000     -4.8195887      0.0688845     21.3190002
  330   1   1  0.7000000      8.5639534      7.1096053     28.5919704
  331   1   1  0.7000000      9.9593372      1.9565614     26.7332840
  332   1   1  0.7000000     10.7500296      2.0314884     23.7891216
  333   1   1  0.7000000     12.9865742      0.0688845     23.2895069
  334   1   1  0.7000000      6.8755779     18.0586147      8.4200039
  335   1   1  0.7000000      9.4014177     18.0586147      6.4494977
  336   1   1  0.7000000     11.9088984     23.0279675      8.1175585
  337   1   1  0.7000000     10.7531128     18.1963844      1.4928980
  338   1   1  0.7000000      8.2271919     18.1963844      3.4637020
  339   1   1  0.7000000     14.8050346     22.1385117      8.9196196
  340   1   1  0.7000000      3.0945132     19.2695312      3.1612561
  341   1   1  0.7000000      1.4719607     22.1385117      5.9498825
  342   1   1  0.7000000     -0.7645832     24.1011162      6.4494977
  343   1   1  0.7000000     14.5340958     16.9854679      6.7519431
  344   1   1  0.7000000     15.3659573     14.0415621      6.9074783
  345   1   1  0.7000000     16.1566486     14.1164885      3.9633169
  346   1   1  0.7000000     18.3931942     12.1538849      3.4637020
  347   1   1  0.7000000      3.0164821     13.2270317     11.7082462
  348   1   1  0.7000000      2.4529579     23.1028938     13.7224693
  349   1   1  0.7000000      1.9356427     16.0960121     18.8328190
  350   1   1  0.7000000      4.1721869     18.0586147     18.3332024
  351   1   1  0.7000000      9.7253437     16.1709385     12.9186230
  352   1   1  0.7000000      8.9346504     16.0960121     15.8627844
  353   1   1  0.7000000      6.6981072     18.0586147     16.3624001
  354   1   1  0.7000000      9.7690315     13.1521053     16.0165348
  355   1   1  0.7000000     10.2863464     20.1589890     10.9061852
  356   1   1  0.7000000      8.0498028     18.1963844     11.4057999
  357   1   1  0.7000000      1.6648674     23.0279675     16.6645489
  358   1   1  0.7000000      1.1012626     13.1521053     18.6790676
  359   1   1  0.7000000      2.4966469     20.0840626     16.8203793
  360   1   1  0.7000000      3.2873385     20.1589890     13.8762197
  361   1   1  0.7000000     12.6189594     17.0603943     13.7224693
  362   1   1  0.7000000     14.0143433     22.2134380     11.8637810
  363   1   1  0.7000000     14.3381882     24.1011162     18.3332024
  364   1   1  0.7000000     -0.4406574     22.2134380     12.9186230
  365   1   1  0.7000000     -3.4678934     24.1011162     16.3624001
  366   1   1  0.7000000     -1.7923529     14.0415621     17.8752232
  367   1   1  0.7000000     -2.1161976     12.1538849     11.4057999
  368   1   1  0.7000000     13.4533396     14.1164885     13.8762197
  369   1   1  0.7000000      0.3130913     13.2270317     21.6214447
  370   1   1  0.7000000      7.8538928     13.2270317     22.9870605
  371   1   1  0.7000000      3.9947972     18.0586147     26.2753029
  372   1   1  0.7000000      7.0657210     13.1521053     25.9294376
  373   1   1  0.7000000      7.5829549     20.1589890     20.8193855
  374   1   1  0.7000000      5.3464117     18.1963844     21.3190002
  375   1   1  0.7000000      2.8205724     18.1963844     23.2895069
  376   1   1  0.7000000      9.9155693     17.0603943     23.6356678
  377   1   1  0.7000000     11.6348782     24.1011162     28.2461071
  378   1   1  0.7000000     -3.9346590     22.1385117     25.7756863
  379   1   1  0.7000000     -6.1712031     24.1011162     26.2753029
  380   1   1  0.7000000     -3.6638832     16.9854679     27.9439583
  381   1   1  0.7000000     -2.5830450     14.1164885     20.8193855
  382   1   1  0.7000000     -4.8195887     12.1538849     21.3190002
  383   1   1  0.7000000      8.5639534     19.1946049     28.5919704
  384   1   1  0.7000000     10.7500296     14.1164885     23.7891216
  385   1   1  0.7000000     12.9865742     12.1538849     23.2895069
  386   1   1  0.7000000     34.1560402     11.0178947      1.1470335
  387   1   1  0.7000000     29.7334175      5.9736156      6.4494977
  388   1   1  0.7000000     32.2409019     10.9429674      8.1175585
  389   1   1  0.7000000     31.0851135      6.1113844      1.4928980
  390   1   1  0.7000000     36.2178726      7.1845326      1.7950463
  391   1   1  0.7000000     35.1370354     10.0535116      8.9196196
  392   1   1  0.7000000     22.5946522     10.1284389      3.0057211
  393   1   1  0.7000000     19.5674171     12.0161152      6.4494977
  394   1   1  0.7000000     21.2430382      1.9565614      7.9620237
  395   1   1  0.7000000     20.9191132      0.0688845      1.4928980
  396   1   1  0.7000000     34.8660965      4.9004674      6.7519431
  397   1   1  0.7000000     34.3025742      7.1096053      8.7661667
  398   1   1  0.7000000     35.6979561      1.9565614      6.9074783
  399   1   1  0.7000000     36.4886475      2.0314884      3.9633169
  400   1   1  0.7000000     38.7251930      0.0688845      3.4637020
  401   1   1  0.7000000     23.3484821      1.1420325     11.7082462
  402   1   1  0.7000000     24.1803436      4.0859385     11.8637810
  403   1   1  0.7000000     24.5041885      5.9736156     18.3332024
  404   1   1  0.7000000     31.4527283     11.0178947     11.0599356
  405   1   1  0.7000000     30.0573444      4.0859385     12.9186230
  406   1   1  0.7000000     30.1010323      1.0671054     16.0165348
  407   1   1  0.7000000     30.6183491      8.0739889     10.9061852
  408   1   1  0.7000000     21.9968681     10.9429674     16.6645489
  409   1   1  0.7000000     22.8286476      7.9990611     16.8203793
  410   1   1  0.7000000     23.6193390      8.0739889     13.8762197
  411   1   1  0.7000000     25.8558846      6.1113844     13.3766041
  412   1   1  0.7000000     33.5144806      7.1845326     11.7082462
  413   1   1  0.7000000     20.7231236      7.1845326     13.0744553
  414   1   1  0.7000000     19.8913422     10.1284389     12.9186230
  415   1   1  0.7000000     16.8641071     12.0161152     16.3624001
  416   1   1  0.7000000     19.9350319      7.1096053     16.0165348
  417   1   1  0.7000000     20.4523468      2.0314884     10.9061852