LAMMPS (31 Mar 2017)
#
units          metal
boundary       p p p
atom_style     full
bond_style     harmonic
angle_style    harmonic
dihedral_style none
improper_style none
pair_style     lj/cut/coul/long 12.0
kspace_style   ewald 1e-8
read_data      SOF_122_PS.data
  triclinic box = (0 0 0) to (40.664 24.17 29.739) with tilt (0 -8.11001 0)
  1 by 1 by 1 MPI processor grid
  reading atoms ...
  1440 atoms
  scanning bonds ...
  4 = max bonds/atom
  scanning angles ...
  12 = max angles/atom
  scanning dihedrals ...
  12 = max dihedrals/atom
  scanning impropers ...
  12 = max impropers/atom
  reading bonds ...
  1920 bonds
  reading angles ...
  7673 angles
  reading dihedrals ...
  11513 dihedrals
  reading impropers ...
  11520 impropers
  4 = max # of 1-2 neighbors
  6 = max # of 1-3 neighbors
  16 = max # of 1-4 neighbors
  20 = max # of special neighbors
pair_modify    mix arithmetic shift yes tail no table 0
special_bonds  lj 0.0 0.0  0.00000 coul 0.0 0.0  0.00000
#
variable    TK equal 300.0
variable    RandomSeed equal 123456789
#
dump        traj_all   all     custom 10  all.lammpstrj       element xs ys zs
dump_modify traj_all   element Si O  first yes sort id
dump        traj all xyz 10 traj.xyz
dump_modify  traj element Si O
#
velocity    all create ${TK} ${RandomSeed}
velocity    all create 300 ${RandomSeed}
velocity    all create 300 123456789
variable    dt     equal 0.0005
variable    tdamp  equal 100*${dt}
variable    tdamp  equal 100*0.0005
fix         2 all langevin ${TK} ${TK} ${tdamp} ${RandomSeed}
fix         2 all langevin 300 ${TK} ${tdamp} ${RandomSeed}
fix         2 all langevin 300 300 ${tdamp} ${RandomSeed}
fix         2 all langevin 300 300 0.05 ${RandomSeed}
fix         2 all langevin 300 300 0.05 123456789
fix         3 all nve
thermo      1
run         1000
Ewald initialization ...
WARNING: Using polynomial approximation for long-range coulomb (../kspace.cpp:321)
  G vector (1/distance) = 0.322314
  estimated absolute RMS force accuracy = 1.71717e-07
  estimated relative force accuracy = 1.19251e-08
  KSpace vectors: actual max1d max3d = 4334 16 17968
                  kxmax kymax kzmax  = 16 10 15
Neighbor list info ...
  update every 1 steps, delay 10 steps, check yes
  max neighbors/atom: 2000, page size: 100000
  master list distance cutoff = 14
  ghost atom cutoff = 14
  binsize = 7, bins = 7 4 5
  1 neighbor lists, perpetual/occasional/extra = 1 0 0
  (1) pair lj/cut/coul/long, perpetual
      attributes: half, newton on
      pair build: half/bin/newton/tri
      stencil: half/bin/3d/newton/tri
      bin: standard
WARNING: Inconsistent image flags (../domain.cpp:785)
Per MPI rank memory allocation (min/avg/max) = 50.26 | 50.26 | 50.26 Mbytes
Step Temp E_pair E_mol TotEng Press 
       0          300    2992.5491     171.4213     3219.772    83278.634 
       1    294.63298       2992.5    170.91753    3218.2209    83290.619 
       2    291.19226    2992.3753    171.65378    3218.1925    83333.864 
       3    283.65029    2992.1888    173.08734    3218.0366    83377.417 
       4    277.70914    2991.9302    174.50047     3218.086     83438.48 
       5    277.82231    2991.6167    175.09988     3218.393    83579.152 
       6    285.21024     2991.247     174.5907    3218.8884    83787.663 
       7     298.5784    2990.8261    172.89702    3219.2603    84049.036 
       8    316.21563    2990.3766    170.12753     3219.322    84310.351 
       9    336.48507    2989.8895    166.84653    3219.3241    84497.692 
      10    355.31021    2989.3844    163.71868    3219.1927    84563.765 
      11     368.4342    2988.8689    161.19239    3218.5921    84423.274 
      12     377.0357    2988.3599    159.48129    3217.9718    84099.134 
      13    380.60407    2987.8648    158.68798    3217.3471     83585.43 
      14    381.40619     2987.379    158.41124    3216.7339    82950.065 
      15    382.27773    2986.9014    158.17075    3216.1778    82207.667 
      16    385.47313    2986.4474    157.49001    3215.6375    81462.405 
      17    392.36048    2986.0205    156.23261    3215