1440
Atoms. Timestep: 0
Si 5.15632 11.0179 3.80949
Si 6.55173 4.08599 1.95081
Si 13.2604 1.142 3.16127
Si 13.824 11.0179 1.14693
Si 12.4286 4.08599 3.00562
Si 11.6381 4.01094 5.94998
Si 9.40151 5.97353 6.44959
Si 12.4724 1.06714 6.10336
Si 4.36819 10.943 6.75204
Si 5.20004 7.99901 6.90746
Si 5.99052 8.07406 3.96333
Si 8.2271 6.11147 3.46371
Si 15.886 7.1845 1.79516
Si 16.7177 10.1285 1.95081
Si 14.8049 10.0534 8.91952
Si 3.09442 7.1845 3.16127
Si 3.65798 4.97536 1.14693
Si 1.47209 10.0534 5.94998
Si 1.7428 4.9005 8.11746
Si 2.30637 7.10964 6.10336
Si 2.82379 2.03156 0.993327
Si 14.5342 4.9005 6.75204
Si 13.9706 7.10964 8.76614
Si 15.366 1.95651 6.90746
Si 16.1565 2.03156 3.96333
Si 18.3931 0.0689665 3.46371
Si 2.45301 11.0179 13.7226
Si 1.93551 4.01094 18.8328
Si 10.557 1.142 13.0743
Si 11.1207 11.0179 11.06
Si 8.93478 4.01094 15.8628
Si 6.6982 5.97353 16.3624
Si 9.20541 10.943 18.0308
Si 9.76898 1.06714 16.0164
Si 8.37357 7.99901 17.8751
Si 1.10132 1.06714 18.679
Si 2.49673 7.99901 16.8203
Si 3.28721 8.07406 13.8762
Si 5.52379 6.11147 13.3766
Si 13.1826 7.1845 11.7082
Si 14.0144 10.1285 11.8639
Si 12.1015 10.0534 18.8328
Si 14.3381 12.016 18.3332
Si 0.391027 7.1845 13.0743
Si 0.954671 4.97536 11.06
Si -1.23122 10.0534 15.8628
Si -0.960587 4.9005 18.0308
Si -0.397025 7.10964 16.0164
Si 0.120477 2.03156 10.9062
Si 11.2673 7.10964 18.679
Si 0.313186 1.142 21.6215
Si -0.250377 11.0179 23.6356
Si 1.46879 5.97353 28.2461
Si 8.41736 11.0179 20.9729
Si 7.02195 4.08599 22.8315
Si 6.23147 4.01094 25.7757
Si 6.50202 10.943 27.9438
Si 5.67026 7.99901 27.7882
Si 5.3465 6.11147 21.3191
Si -0.206584 7.99901 26.7334
Si 2.82048 6.11147 23.2894
Si 10.4792 7.1845 21.6215
Si 9.91562 4.97536 23.6356
Si -2.3122 7.1845 22.987
Si -3.14405 10.1285 22.8315
Si -3.93453 10.0534 25.7757
Si -6.17111 12.016 26.2753
Si -3.66398 4.9005 27.9438
Si -3.10034 7.10964 25.9295
Si -4.49574 1.95651 27.7882
Si 9.12757 4.9005 26.5777
Si 5.71997 13.227 1.79516
Si 5.15632 23.1029 3.80949
Si 6.55173 16.171 1.95081
Si 4.6389 16.0959 8.91952
Si 13.2604 13.227 3.16127
Si 13.824 23.1029 1.14693
Si 12.4286 16.171 3.00562
Si 11.6381 16.0959 5.94998
Si 12.4724 13.1521 6.10336
Si 11.077 20.084 7.96204
Si 12.9898 20.1591 0.993327
Si 4.36819 23.028 6.75204
Si 3.80463 13.1521 8.76614
Si 5.20004 20.084 6.90746
Si 5.99052 20.1591 3.96333
Si 15.886 19.2695 1.79516
Si 15.3223 17.0604 3.80949
Si 16.7177 22.2135 1.95081
Si 17.0415 24.101 8.41991
Si 3.65798 17.0604 1.14693
Si 2.26257 22.2135 3.00562
Si 1.7428 16.9855 8.11746
Si 2.30637 19.1946 6.10336
Si 0.910958 14.0415 7.96204
Si 2.82379 14.1166 0.993327
Si 0.587202 12.154 1.49294
Si 13.9706 19.1946 8.76614
Si 3.84842 16.171 11.8639
Si 10.557 13.227 13.0743
Si 11.1207 23.1029 11.06
Si 9.20541 23.028 18.0308
Si 8.37357 20.084 17.8751
Si 5.52379 18.1965 13.3766
Si 13.1826 19.2695 11.7082
Si 12.1015 22.1384 18.8328
Si 0.391027 19.2695 13.0743
Si 0.954671 17.0604 11.06
Si -1.23122 22.1384 15.8628
Si -0.960587 16.9855 18.0308
Si -0.397025 19.1946 16.0164
Si 0.120477 14.1166 10.9062
Si 11.831 16.9855 16.6647
Si 11.2673 19.1946 18.679
Si 12.6627 14.0415 16.8203
Si 15.6898 12.154 13.3766
Si -0.250377 23.1029 23.6356
Si 1.14503 16.171 21.777
Si -0.767798 16.0959 28.7457
Si 1.46879 18.0585 28.2461
Si 8.41736 23.1029 20.9729
Si 7.02195 16.171 22.8315
Si 6.23147 16.0959 25.7757
Si 6.50202 23.028 27.9438
Si 5.67026 20.084 27.7882
Si -1.03843 23.028 26.5777
Si -1.60199 13.1521 28.5921
Si -0.206584 20.084 26.7334
Si 0.583898 20.1591 23.789
Si 10.4792 19.2695 21.6215
Si 11.311 22.2135 21.777
Si 9.3982 22.1384 28.7457
Si -2.3122 19.2695 22.987
Si -1.74864 17.0604 20.9729
Si -3.14405 22.2135 22.8315
Si -3.10034 19.1946 25.9295
Si -4.49574 14.0415 27.7882
Si 9.12757 16.9855 26.5777
Si 9.95942 14.0415 26.7334
Si 26.052 1.142 1.79516
Si 25.4883 11.0179 3.80949
Si 26.8837 4.08599 1.95081
Si 24.9709 4.01094 8.91952
Si 27.2075 5.97353 8.41991
Si 33.5924 1.142 3.16127
Si 32.7606 4.08599 3.00562
Si 31.9701 4.01094 5.94998
Si 32.8044 1.06714 6.10336
Si 31.409 7.99901 7.96204
Si 33.3218 8.07406 0.993327
Si 24.7002 10.943 6.75204
Si 24.1366 1.06714 8.76614
Si 25.532 7.99901 6.90746
Si 26.3225 8.07406 3.96333
Si 28.5591 6.11147 3.46371
Si 35.6543 4.97536 3.80949
Si 37.0497 10.1285 1.95081
Si 37.3735 12.016 8.41991
Si 23.4264 7.1845 3.16127
Si 23.99 4.97536 1.14693
Si 21.8041 10.0534 5.94998
Si 22.0748 4.9005 8.11746
Si 22.6384 7.10964 6.10336
Si 23.1558 2.03156 0.993327
Si 22.785 11.0179 13.7226
Si 22.2675 4.01094 18.8328
Si 30.889 1.142 13.0743
Si 29.2668 4.01094 15.8628
Si 27.0302 5.97353 16.3624
Si 29.5374 10.943 18.0308
Si 28.7056 7.99901 17.8751
Si 28.3819 6.11147 11.4058
Si 21.4333 1.06714 18.679
Si 32.951 4.97536 13.7226
Si 34.3464 10.1285 11.8639
Si 32.4335 10.0534 18.8328
Si 34.6701 12.016 18.3332
Si 21.2867 4.97536 11.06
Si 19.1008 10.0534 15.8628
Si 19.3714 4.9005 18.0308
Si 18.5396 1.95651 17.8751
Si 32.163 4.9005 16.6647
Si 31.5993 7.10964 18.679
Si 32.9947 1.95651 16.8203
Si 20.0816 11.0179 23.6356
Si 21.477 4.08599 21.777
Si 19.5642 4.01094 28.7457
Si 28.1858 1.142 22.987
Si 27.354 4.08599 22.8315
Si 26.5635 4.01094 25.7757
Si 26.834 10.943 27.9438
Si 26.0023 7.99901 27.7882
Si 27.9151 8.07406 20.8195
Si 19.2936 10.943 26.5777
Si 18.73 1.06714 28.5921
Si 30.8112 7.1845 21.6215
Si 30.2476 4.97536 23.6356
Si 31.643 10.1285 21.777
Si 18.0198 7.1845 22.987
Si 17.188 10.1285 22.8315
Si 16.3975 10.0534 25.7757
Si 14.1609 12.016 26.2753
Si 16.668 4.9005 27.9438
Si 17.2317 7.10964 25.9295
Si 17.7491 2.03156 20.8195
Si 15.5125 0.0689665 21.3191
Si 30.2914 1.95651 26.7334
Si 26.8837 16.171 1.95081
Si 24.9709 16.0959 8.91952
Si 27.2075 18.0585 8.41991
Si 33.5924 13.227 3.16127
Si 34.156 23.1029 1.14693
Si 29.7335 18.0585 6.44959
Si 32.2408 23.028 8.11746
Si 32.8044 13.1521 6.10336
Si 31.409 20.084 7.96204
Si 24.7002 23.028 6.75204
Si 24.1366 13.1521 8.76614
Si 25.532 20.084 6.90746
Si 36.218 19.2695 1.79516
Si 35.6543 17.0604 3.80949
Si 37.0497 22.2135 1.95081
Si 35.1369 22.1384 8.91952
Si 37.3735 24.101 8.41991
Si 23.4264 19.2695 3.16127
Si 23.99 17.0604 1.14693
Si 22.5946 22.2135 3.00562
Si 21.8041 22.1384 5.94998
Si 22.0748 16.9855 8.11746
Si 22.6384 19.1946 6.10336
Si 21.243 14.0415 7.96204
Si 23.1558 14.1166 0.993327
Si 20.9192 12.154 1.49294
Si 34.8662 16.9855 6.75204
Si 34.3026 19.1946 8.76614
Si 35.698 14.0415 6.90746
Si 22.785 23.1029 13.7226
Si 24.1804 16.171 11.8639
Si 30.889 13.227 13.0743
Si 30.0573 16.171 12.9187
Si 29.2668 16.0959 15.8628
Si 30.6185 20.1591 10.9062
Si 28.3819 18.1965 11.4058
Si 21.997 23.028 16.6647
Si 21.4333 13.1521 18.679
Si 23.6192 20.1591 13.8762
Si 33.5146 19.2695 11.7082
Si 34.3464 22.2135 11.8639
Si 32.4335 22.1384 18.8328
Si 21.2867 17.0604 11.06
Si 19.1008 22.1384 15.8628
Si 19.3714 16.9855 18.0308
Si 19.935 19.1946 16.0164
Si 33.7852 14.1166 13.8762
Si 20.6452 13.227 21.6215
Si 20.0816 23.1029 23.6356
Si 21.477 16.171 21.777
Si 19.5642 16.0959 28.7457
Si 28.1858 13.227 22.987
Si 28.7494 23.1029 20.9729
Si 27.354 16.171 22.8315
Si 26.834 23.028 27.9438
Si 27.3977 13.1521 25.9295
Si 26.0023 20.084 27.7882
Si 27.9151 20.1591 20.8195
Si 25.6785 18.1965 21.3191
Si 19.2936 23.028 26.5777
Si 20.1254 20.084 26.7334
Si 23.1525 18.1965 23.2894
Si 30.8112 19.2695 21.6215
Si 30.2476 17.0604 23.6356
Si 31.643 22.2135 21.777
Si 29.7302 22.1384 28.7457
Si 18.0198 19.2695 22.987
Si 18.5834 17.0604 20.9729
Si 17.188 22.2135 22.8315
Si 16.3975 22.1384 25.7757
Si 14.1609 24.101 26.2753
Si 17.2317 19.1946 25.9295
Si 15.8363 14.0415 27.7882
Si 15.5125 12.154 21.3191
Si 28.896 19.1946 28.5921
Si 30.2914 14.0415 26.7334
Si 31.0819 14.1166 23.789
Si 5.71997 1.142 1.79516
Si 4.6389 4.01094 8.91952
Si 6.87549 5.97353 8.41991
Si 11.9088 10.943 8.11746
Si 11.077 7.99901 7.96204
Si 12.9898 8.07406 0.993327
Si 10.7532 6.11147 1.49294
Si 3.80463 1.06714 8.76614
Si 15.3223 4.97536 3.80949
Si 17.0415 12.016 8.41991
Si 2.26257 10.1285 3.00562
Si -0.764493 12.016 6.44959
Si 0.910958 1.95651 7.96204
Si 0.587202 0.0689665 1.49294
Si 3.01658 1.142 11.7082
Si 3.84842 4.08599 11.8639
Si 4.1721 5.97353 18.3332
Si 9.72526 4.08599 12.9187
Si 10.2865 8.07406 10.9062
Si 8.04989 6.11147 11.4058
Si 1.66496 10.943 16.6647
Si 12.619 4.97536 13.7226
Si -0.440738 10.1285 12.9187
Si -3.4678 12.016 16.3624
Si -1.79243 1.95651 17.8751
Si -2.11611 0.0689665 11.4058
Si 11.831 4.9005 16.6647
Si 12.6627 1.95651 16.8203
Si 13.4532 2.03156 13.8762
Si 15.6898 0.0689665 13.3766
Si 1.14503 4.08599 21.777
Si -0.767798 4.01094 28.7457
Si 7.8538 1.142 22.987
Si 3.99489 5.97353 26.2753
Si 7.06566 1.06714 25.9295
Si 7.58309 8.07406 20.8195
Si -1.03843 10.943 26.5777
Si -1.60199 1.06714 28.5921
Si 0.583898 8.07406 23.789
Si 11.311 10.1285 21.777
Si 9.3982 10.0534 28.7457
Si 11.6348 12.016 28.2461
Si -1.74864 4.97536 20.9729
Si -2.58291 2.03156 20.8195
Si -4.8195 0.0689665 21.3191
Si 8.56401 7.10964 28.5921
Si 9.95942 1.95651 26.7334
Si 10.7499 2.03156 23.789
Si 12.9865 0.0689665 23.2894
Si 6.87549 18.0585 8.41991
Si 9.40151 18.0585 6.44959
Si 11.9088 23.028 8.11746
Si 10.7532 18.1965 1.49294
Si 8.2271 18.1965 3.46371
Si 14.8049 22.1384 8.91952
Si 3.09442 19.2695 3.16127
Si 1.47209 22.1384 5.94998
Si -0.764493 24.101 6.44959
Si 14.5342 16.9855 6.75204
Si 15.366 14.0415 6.90746
Si 16.1565 14.1166 3.96333
Si 18.3931 12.154 3.46371
Si 3.01658 13.227 11.7082
Si 2.45301 23.1029 13.7226
Si 1.93551 16.0959 18.8328
Si 4.1721 18.0585 18.3332
Si 9.72526 16.171 12.9187
Si 8.93478 16.0959 15.8628
Si 6.6982 18.0585 16.3624
Si 9.76898 13.1521 16.0164
Si 10.2865 20.1591 10.9062
Si 8.04989 18.1965 11.4058
Si 1.66496 23.028 16.6647
Si 1.10132 13.1521 18.679
Si 2.49673 20.084 16.8203
Si 3.28721 20.1591 13.8762
Si 12.619 17.0604 13.7226
Si 14.0144 22.2135 11.8639
Si 14.3381 24.101 18.3332
Si -0.440738 22.2135 12.9187
Si -3.4678 24.101 16.3624
Si -1.79243 14.0415 17.8751
Si -2.11611 12.154 11.4058
Si 13.4532 14.1166 13.8762
Si 0.313186 13.227 21.6215
Si 7.8538 13.227 22.987
Si 3.99489 18.0585 26.2753
Si 7.06566 13.1521 25.9295
Si 7.58309 20.1591 20.8195
Si 5.3465 18.1965 21.3191
Si 2.82048 18.1965 23.2894
Si 9.91562 17.0604 23.6356
Si 11.6348 24.101 28.2461
Si -3.93453 22.1384 25.7757
Si -6.17111 24.101 26.2753
Si -3.66398 16.9855 27.9438
Si -2.58291 14.1166 20.8195
Si -4.8195 12.154 21.3191
Si 8.56401 19.1946 28.5921
Si 10.7499 14.1166 23.789
Si 12.9865 12.154 23.2894
Si 34.156 11.0179 1.14693
Si 29.7335 5.97353 6.44959
Si 32.2408 10.943 8.11746
Si 31.0852 6.11147 1.49294
Si 36.218 7.1845 1.79516
Si 35.1369 10.0534 8.91952
Si 22.5946 10.1285 3.00562
Si 19.5675 12.016 6.44959
Si 21.243 1.95651 7.96204
Si 20.9192 0.0689665 1.49294
Si 34.8662 4.9005 6.75204
Si 34.3026 7.10964 8.76614
Si 35.698 1.95651 6.90746
Si 36.4885 2.03156 3.96333
Si 38.7251 0.0689665 3.46371
Si 23.3486 1.142 11.7082
Si 24.1804 4.08599 11.8639
Si 24.5041 5.97353 18.3332
Si 31.4527 11.0179 11.06
Si 30.0573 4.08599 12.9187
Si 30.101 1.06714 16.0164
Si 30.6185 8.07406 10.9062
Si 21.997 10.943 16.6647
Si 22.8287 7.99901 16.8203
Si 23.6192 8.07406 13.8762
Si 25.8558 6.11147 13.3766
Si 33.5146 7.1845 11.7082
Si 20.723 7.1845 13.0743
Si 19.8913 10.1285 12.9187
Si 16.8642 12.016 16.3624
Si 19.935 7.10964 16.0164
Si 20.4525 2.03156 10.9062
Si 18.2159 0.0689665 11.4058
Si 33.7852 2.03156 13.8762
Si 36.0218 0.0689665 13.3766
Si 20.6452 1.142 21.6215
Si 21.8008 5.97353 28.2461
Si 28.7494 11.0179 20.9729
Si 24.3269 5.97353 26.2753
Si 27.3977 1.06714 25.9295
Si 25.6785 6.11147 21.3191
Si 20.1254 7.99901 26.7334
Si 20.9159 8.07406 23.789
Si 23.1525 6.11147 23.2894
Si 29.7302 10.0534 28.7457
Si 31.9668 12.016 28.2461
Si 18.5834 4.97536 20.9729
Si 15.8363 1.95651 27.7882
Si 29.4596 4.9005 26.5777
Si 28.896 7.10964 28.5921
Si 31.0819 2.03156 23.789
Si 33.3185 0.0689665 23.2894
Si 26.052 13.227 1.79516
Si 25.4883 23.1029 3.80949
Si 32.7606 16.171 3.00562
Si 31.9701 16.0959 5.94998
Si 33.3218 20.1591 0.993327
Si 31.0852 18.1965 1.49294
Si 26.3225 20.1591 3.96333
Si 28.5591 18.1965 3.46371
Si 19.5675 24.101 6.44959
Si 36.4885 14.1166 3.96333
Si 38.7251 12.154 3.46371
Si 23.3486 13.227 11.7082
Si 22.2675 16.0959 18.8328
Si 24.5041 18.0585 18.3332
Si 31.4527 23.1029 11.06
Si 27.0302 18.0585 16.3624
Si 29.5374 23.028 18.0308
Si 30.101 13.1521 16.0164
Si 28.7056 20.084 17.8751
Si 22.8287 20.084 16.8203
Si 25.8558 18.1965 13.3766
Si 32.951 17.0604 13.7226
Si 34.6701 24.101 18.3332
Si 20.723 19.2695 13.0743
Si 19.8913 22.2135 12.9187
Si 16.8642 24.101 16.3624
Si 18.5396 14.0415 17.8751
Si 20.4525 14.1166 10.9062
Si 18.2159 12.154 11.4058
Si 32.163 16.9855 16.6647
Si 31.5993 19.1946 18.679
Si 32.9947 14.0415 16.8203
Si 36.0218 12.154 13.3766
Si 21.8008 18.0585 28.2461
Si 26.5635 16.0959 25.7757
Si 24.3269 18.0585 26.2753
Si 18.73 13.1521 28.5921
Si 20.9159 20.1591 23.789
Si 31.9668 24.101 28.2461
Si 16.668 16.9855 27.9438
Si 17.7491 14.1166 20.8195
Si 29.4596 16.9855 26.5777
Si 33.3185 12.154 23.2894
O 6.05023 9.67763 3.82742
O 3.76264 10.7084 3.06688
O 4.14429 1.4719 1.71983
O 7.3651 4.78801 3.15015
O 6.5143 2.49201 2.16998
O 7.30381 4.41349 0.564958
O 10.166 6.0425 0
O 5.94649 4.66962 8.24861
O 6.22868 0.595804 0.368697
O 8.1385 5.86971 7.43475
O 5.94327 0.0591932 2.96705
O 12.9302 9.67763 1.12878
O 15.2177 10.7084 1.88932
O 14.8361 1.4719 3.23659
O 11.6153 4.78801 1.80605
O 12.466 2.49201 2.78644
O 11.6765 4.41349 4.39147
O 8.81439 6.0425 4.9562
O 10.3305 4.66962 6.62089
O 12.7516 0.595804 4.58773
O 13.037 0.0591932 1.9896
O 11.5784 2.40737 6.08589
O 13.8661 1.37656 6.84597
O 13.4844 10.6131 8.19302
O 10.2636 7.29699 6.7627
O 11.1143 9.59299 7.7431
O 10.3249 7.67151 9.34789
O 11.6821 7.41538 1.66447
O 11.4 11.4892 9.54415
O 9.49011 6.21529 2.47855
O 11.6853 12.0258 6.94603
O 4.69861 2.40737 8.78362
O 2.41094 1.37656 8.02353
O 2.7926 10.6131 6.67648
O 6.01341 7.29699 8.1068
O 5.16268 9.59299 7.12641
O 5.95211 7.67151 5.52161
O 7.29819 7.41538 3.29218
O 4.87698 11.4892 5.32535
O 4.59166 12.0258 7.92347
O 16.2162 3.63513 3.82742
O 13.9286 4.66594 3.06688
O 14.3103 7.5144 1.71983
O 17.5311 10.8305 3.15015
O 16.6803 8.53452 2.16998
O 17.4698 10.456 0.564958
O 0 0 0
O 16.1125 10.7121 8.24861
O 16.3947 6.6383 0.368697
O 38.6365 11.9122 7.43475
O 16.1093 6.10169 2.96705
O 2.76416 3.63513 1.12878
O 5.05175 4.66594 1.88932
O 4.67009 7.5144 3.23659
O 1.44928 10.8305 1.80605
O 2.30001 8.53452 2.78644
O 1.51049 10.456 4.39147
O 39.3124 0 4.9562
O 0.164503 10.7121 6.62089
O 2.58563 6.6383 4.58773
O 2.87103 6.10169 1.9896
O 1.41238 8.44987 6.08589
O 3.70005 7.41906 6.84597
O 3.3184 4.5706 8.19302
O 0.0975863 1.25449 6.7627
O 0.94831 3.55049 7.7431
O 0.15888 1.62901 9.34789
O 1.51612 1.37288 1.66447
O 1.23401 5.4467 9.54415
O -0.675888 0.172785 2.47855
O 1.51933 5.98331 6.94603
O 14.8646 8.44987 8.78362
O 12.5769 7.41906 8.02353
O 12.9586 4.5706 6.67648
O 16.1794 1.25449 8.1068
O 15.3287 3.55049 7.12641
O 16.1181 1.62901 5.52161
O 17.4642 1.37288 3.29218
O 15.043 5.4467 5.32535
O 14.7577 5.98331 7.92347
O 3.34684 9.67763 13.7407
O 1.05925 10.7084 12.9802
O 1.4409 1.4719 11.6329
O 4.66171 4.78801 13.0635
O 3.81099 2.49201 12.0831
O 4.6005 4.41349 10.478
O 7.46261 6.0425 9.9133
O 3.24318 4.66962 18.1617
O 3.52537 0.595804 10.2818
O 5.43511 5.86971 17.3481
O 3.23997 0.0591932 12.8799
O 10.2268 9.67763 11.0421
O 12.5144 10.7084 11.8026
O 12.1327 1.4719 13.1497
O 8.91189 4.78801 11.7194
O 9.7627 2.49201 12.6995
O 8.97319 4.41349 14.3045
O 6.11099 6.0425 14.8695
O 7.62711 4.66962 16.534
O 10.0483 0.595804 14.5008
O 10.3337 0.0591932 11.9025
O 8.87515 2.40737 15.9983
O 11.1627 1.37656 16.7588
O 10.7811 10.6131 18.1061
O 7.56028 7.29699 16.6756
O 8.411 9.59299 17.6559
O 7.62149 7.67151 19.261
O 8.97881 7.41538 11.5773
O 8.69662 11.4892 19.4572
O 6.78688 6.21529 12.3909
O 8.98202 12.0258 16.8591
O 1.99522 2.40737 18.6969
O -0.292368 1.37656 17.9364
O 0.0892868 10.6131 16.5893
O 3.3101 7.29699 18.0197
O 2.45929 9.59299 17.0395
O 3.2488 7.67151 15.4345
O 4.59488 7.41538 13.205
O 2.17367 11.4892 15.2382
O 1.88827 12.0258 17.8365
O 13.5128 3.63513 13.7407
O 11.2252 4.66594 12.9802
O 11.6069 7.5144 11.6329
O 14.8277 10.8305 13.0635
O 13.977 8.53452 12.0831
O 14.7665 10.456 10.478
O -2.70339 0 9.9133
O 13.4092 10.7121 18.1617
O 13.6914 6.6383 10.2818
O -4.73089 11.9122 17.3481
O 13.406 6.10169 12.8799
O 0.0607662 3.63513 11.0421
O 2.34836 4.66594 11.8026
O 1.9667 7.5144 13.1497
O -1.25411 10.8305 11.7194
O -0.403304 8.53452 12.6995
O -1.19282 10.456 14.3045
O 36.609 0 14.8695
O -2.53889 10.7121 16.534
O -0.117682 6.6383 14.5008
O 0.16772 6.10169 11.9025
O -1.29085 8.44987 15.9983
O 0.996742 7.41906 16.7588
O 0.615088 4.5706 18.1061
O -2.60572 1.25449 16.6756
O -1.755 3.55049 17.6559
O -2.54451 1.62901 19.261
O -1.18719 1.37288 11.5773
O -1.46938 5.4467 19.4572
O 37.2849 0.172785 12.3909
O -1.18398 5.98331 16.8591
O 12.1612 8.44987 18.6969
O 9.87363 7.41906 17.9364
O 10.2553 4.5706 16.5893
O 13.4761 1.25449 18.0197
O 12.6253 3.55049 17.0395
O 13.4148 1.62901 15.4345
O 14.7609 1.37288 13.205
O 12.3397 5.4467 15.2382
O 12.0543 5.98331 17.8365
O 0.643608 9.67763 23.6531
O -1.64406 10.7084 22.893
O -1.26241 1.4719 21.546
O 1.9584 4.78801 22.9763
O 1.10768 2.49201 21.9959
O 1.89711 4.41349 20.3911
O 4.75938 6.0425 19.8257
O 0.539872 4.66962 28.0745
O 0.821976 0.595804 20.1949
O 2.73188 5.86971 27.2605
O 0.536655 0.0591932 22.793
O 7.52338 9.67763 20.9554
O 9.81105 10.7084 21.7155
O 9.42939 1.4719 23.0625
O 6.20858 4.78801 21.6322
O 7.0593 2.49201 22.6126
O 6.26988 4.41349 24.2174
O 3.4076 6.0425 24.7828
O 4.9238 4.66962 26.4468
O 7.34501 0.595804 24.4137
O 7.63033 0.0591932 21.8155
O 6.17176 2.40737 25.9116
O 8.45935 1.37656 26.6721
O 8.0777 10.6131 28.0192
O 4.85689 7.29699 26.5889
O 5.70769 9.59299 27.569
O 4.91818 7.67151 29.174
O 6.2755 7.41538 21.4904
O 5.99331 11.4892 29.3703
O 4.08349 6.21529 22.3043
O 6.27871 12.0258 26.772
O -0.708168 2.40737 28.6102
O -2.99576 1.37656 27.8497
O -2.6141 10.6131 26.5024
O 0.606707 7.29699 27.933
O -0.244017 9.59299 26.9526
O 0.545495 7.67151 25.3475
O 1.89149 7.41538 23.1181
O -0.529638 11.4892 25.1513
O -0.81504 12.0258 27.7494
O 10.8096 3.63513 23.6531
O 8.52194 4.66594 22.893
O 8.90359 7.5144 21.546
O 12.1244 10.8305 22.9763
O 11.2737 8.53452 21.9959
O 12.0631 10.456 20.3911
O 35.2574 0 19.8257
O 10.7059 10.7121 28.0745
O 10.988 6.6383 20.1949
O 33.2299 11.9122 27.2605
O 10.7027 6.10169 22.793
O -2.64262 3.63513 20.9554
O -0.354953 4.66594 21.7155
O -0.736608 7.5144 23.0625
O -3.95742 10.8305 21.6322
O -3.1067 8.53452 22.6126
O -3.89613 10.456 24.2174
O -6.7584 0 24.7828
O -5.2422 10.7121 26.4468
O -2.82099 6.6383 24.4137
O -2.53567 6.10169 21.8155
O -3.99424 8.44987 25.9116
O -1.70665 7.41906 26.6721
O -2.0883 4.5706 28.0192
O -5.30911 1.25449 26.5889
O -4.45831 3.55049 27.569
O -5.24782 1.62901 29.174
O -3.8905 1.37288 21.4904
O -4.17269 5.4467 29.3703
O -6.08251 0.172785 22.3043
O -3.88729 5.98331 26.772
O 9.45783 8.44987 28.6102
O 7.17024 7.41906 27.8497
O 7.5519 4.5706 26.5024
O 10.7727 1.25449 27.933
O 9.92198 3.55049 26.9526
O 10.7115 1.62901 25.3475
O 12.0575 1.37288 23.1181
O 9.63636 5.4467 25.1513
O 9.35096 5.98331 27.7494
O 6.05023 21.7626 3.82742
O 3.76264 22.7934 3.06688
O 4.14429 13.5569 1.71983
O 7.3651 16.873 3.15015
O 6.5143 14.577 2.16998
O 7.30381 16.4985 0.564958
O 10.166 18.1275 0
O 5.94649 16.7546 8.24861
O 6.22868 12.6808 0.368697
O 8.1385 17.9547 7.43475
O 5.94327 12.1442 2.96705
O 12.9302 21.7626 1.12878
O 15.2177 22.7934 1.88932
O 14.8361 13.5569 3.23659
O 11.6153 16.873 1.80605
O 12.466 14.577 2.78644
O 11.6765 16.4985 4.39147
O 8.81439 18.1275 4.9562
O 10.3305 16.7546 6.62089
O 12.7516 12.6808 4.58773
O 13.037 12.1442 1.9896
O 11.5784 14.4924 6.08589
O 13.8661 13.4616 6.84597
O 13.4844 22.6981 8.19302
O 10.2636 19.382 6.7627
O 11.1143 21.678 7.7431
O 10.3249 19.7565 9.34789
O 11.6821 19.5004 1.66447
O 11.4 23.5742 9.54415
O 9.49011 18.3003 2.47855
O 11.6853 24.1108 6.94603
O 4.69861 14.4924 8.78362
O 2.41094 13.4616 8.02353
O 2.7926 22.6981 6.67648
O 6.01341 19.382 8.1068
O 5.16268 21.678 7.12641
O 5.95211 19.7565 5.52161
O 7.29819 19.5004 3.29218
O 4.87698 23.5742 5.32535
O 4.59166 24.1108 7.92347
O 16.2162 15.7201 3.82742
O 13.9286 16.7509 3.06688
O 14.3103 19.5994 1.71983
O 17.5311 22.9155 3.15015
O 16.6803 20.6195 2.16998
O 17.4698 22.541 0.564958
O 0 12.085 0
O 16.1125 22.7971 8.24861
O 16.3947 18.7233 0.368697
O 38.6365 23.9972 7.43475
O 16.1093 18.1867 2.96705
O 2.76416 15.7201 1.12878
O 5.05175 16.7509 1.88932
O 4.67009 19.5994 3.23659
O 1.44928 22.9155 1.80605
O 2.30001 20.6195 2.78644
O 1.51049 22.541 4.39147
O 39.3124 12.085 4.9562
O 0.164503 22.7971 6.62089
O 2.58563 18.7233 4.58773
O 2.87103 18.1867 1.9896
O 1.41238 20.5349 6.08589
O 3.70005 19.5041 6.84597
O 3.3184 16.6556 8.19302
O 0.0975863 13.3395 6.7627
O 0.94831 15.6355 7.7431
O 0.15888 13.714 9.34789
O 1.51612 13.4579 1.66447
O 1.23401 17.5317 9.54415
O -0.675888 12.2578 2.47855
O 1.51933 18.0683 6.94603
O 14.8646 20.5349 8.78362
O 12.5769 19.5041 8.02353
O 12.9586 16.6556 6.67648
O 16.1794 13.3395 8.1068
O 15.3287 15.6355 7.12641
O 16.1181 13.714 5.52161
O 17.4642 13.4579 3.29218
O 15.043 17.5317 5.32535
O 14.7577 18.0683 7.92347
O 3.34684 21.7626 13.7407
O 1.05925 22.7934 12.9802
O 1.4409 13.5569 11.6329
O 4.66171 16.873 13.0635
O 3.81099 14.577 12.0831
O 4.6005 16.4985 10.478
O 7.46261 18.1275 9.9133
O 3.24318 16.7546 18.1617
O 3.52537 12.6808 10.2818
O 5.43511 17.9547 17.3481
O 3.23997 12.1442 12.8799
O 10.2268 21.7626 11.0421
O 12.5144 22.7934 11.8026
O 12.1327 13.5569 13.1497
O 8.91189 16.873 11.7194
O 9.7627 14.577 12.6995
O 8.97319 16.4985 14.3045
O 6.11099 18.1275 14.8695
O 7.62711 16.7546 16.534
O 10.0483 12.6808 14.5008
O 10.3337 12.1442 11.9025
O 8.87515 14.4924 15.9983
O 11.1627 13.4616 16.7588
O 10.7811 22.6981 18.1061
O 7.56028 19.382 16.6756
O 8.411 21.678 17.6559
O 7.62149 19.7565 19.261
O 8.97881 19.5004 11.5773
O 8.69662 23.5742 19.4572
O 6.78688 18.3003 12.3909
O 8.98202 24.1108 16.8591
O 1.99522 14.4924 18.6969
O -0.292368 13.4616 17.9364
O 0.0892868 22.6981 16.5893
O 3.3101 19.382 18.0197
O 2.45929 21.678 17.0395
O 3.2488 19.7565 15.4345
O 4.59488 19.5004 13.205
O 2.17367 23.5742 15.2382
O 1.88827 24.1108 17.8365
O 13.5128 15.7201 13.7407
O 11.2252 16.7509 12.9802
O 11.6069 19.5994 11.6329
O 14.8277 22.9155 13.0635
O 13.977 20.6195 12.0831
O 14.7665 22.541 10.478
O -2.70339 12.085 9.9133
O 13.4092 22.7971 18.1617
O 13.6914 18.7233 10.2818
O -4.73089 23.9972 17.3481
O 13.406 18.1867 12.8799
O 0.0607662 15.7201 11.0421
O 2.34836 16.7509 11.8026
O 1.9667 19.5994 13.1497
O -1.25411 22.9155 11.7194
O -0.403304 20.6195 12.6995
O -1.19282 22.541 14.3045
O 36.609 12.085 14.8695
O -2.53889 22.7971 16.534
O -0.117682 18.7233 14.5008
O 0.16772 18.1867 11.9025
O -1.29085 20.5349 15.9983
O 0.996742 19.5041 16.7588
O 0.615088 16.6556 18.1061
O -2.60572 13.3395 16.6756
O -1.755 15.6355 17.6559
O -2.54451 13.714 19.261
O -1.18719 13.4579 11.5773
O -1.46938 17.5317 19.4572
O 37.2849 12.2578 12.3909
O -1.18398 18.0683 16.8591
O 12.1612 20.5349 18.6969
O 9.87363 19.5041 17.9364
O 10.2553 16.6556 16.5893
O 13.4761 13.3395 18.0197
O 12.6253 15.6355 17.0395
O 13.4148 13.714 15.4345
O 14.7609 13.4579 13.205
O 12.3397 17.5317 15.2382
O 12.0543 18.0683 17.8365
O 0.643608 21.7626 23.6531
O -1.64406 22.7934 22.893
O -1.26241 13.5569 21.546
O 1.9584 16.873 22.9763
O 1.10768 14.577 21.9959
O 1.89711 16.4985 20.3911
O 4.75938 18.1275 19.8257
O 0.539872 16.7546 28.0745
O 0.821976 12.6808 20.1949
O 2.73188 17.9547 27.2605
O 0.536655 12.1442 22.793
O 7.52338 21.7626 20.9554
O 9.81105 22.7934 21.7155
O 9.42939 13.5569 23.0625
O 6.20858 16.873 21.6322
O 7.0593 14.577 22.6126
O 6.26988 16.4985 24.2174
O 3.4076 18.1275 24.7828
O 4.9238 16.7546 26.4468
O 7.34501 12.6808 24.4137
O 7.63033 12.1442 21.8155
O 6.17176 14.4924 25.9116
O 8.45935 13.4616 26.6721
O 8.0777 22.6981 28.0192
O 4.85689 19.382 26.5889
O 5.70769 21.678 27.569
O 4.91818 19.7565 29.174
O 6.2755 19.5004 21.4904
O 5.99331 23.5742 29.3703
O 4.08349 18.3003 22.3043
O 6.27871 24.1108 26.772
O -0.708168 14.4924 28.6102
O -2.99576 13.4616 27.8497
O -2.6141 22.6981 26.5024
O 0.606707 19.382 27.933
O -0.244017 21.678 26.9526
O 0.545495 19.7565 25.3475
O 1.89149 19.5004 23.1181
O -0.529638 23.5742 25.1513
O -0.81504 24.1108 27.7494
O 10.8096 15.7201 23.6531
O 8.52194 16.7509 22.893
O 8.90359 19.5994 21.546
O 12.1244 22.9155 22.9763
O 11.2737 20.6195 21.9959
O 12.0631 22.541 20.3911
O 35.2574 12.085 19.8257
O 10.7059 22.7971 28.0745
O 10.988 18.7233 20.1949
O 33.2299 23.9972 27.2605
O 10.7027 18.1867 22.793
O -2.64262 15.7201 20.9554
O -0.354953 16.7509 21.7155
O -0.736608 19.5994 23.0625
O -3.95742 22.9155 21.6322
O -3.1067 20.6195 22.6126
O -3.89613 22.541 24.2174
O -6.7584 12.085 24.7828
O -5.2422 22.7971 26.4468
O -2.82099 18.7233 24.4137
O -2.53567 18.1867 21.8155
O -3.99424 20.5349 25.9116
O -1.70665 19.5041 26.6721
O -2.0883 16.6556 28.0192
O -5.30911 13.3395 26.5889
O -4.45831 15.6355 27.569
O -5.24782 13.714 29.174
O -3.8905 13.4579 21.4904
O -4.17269 17.5317 29.3703
O -6.08251 12.2578 22.3043
O -3.88729 18.0683 26.772
O 9.45783 20.5349 28.6102
O 7.17024 19.5041 27.8497
O 7.5519 16.6556 26.5024
O 10.7727 13.3395 27.933
O 9.92198 15.6355 26.9526
O 10.7115 13.714 25.3475
O 12.0575 13.4579 23.1181
O 9.63636 17.5317 25.1513
O 9.35096 18.0683 27.7494
O 26.3822 9.67763 3.82742
O 24.0946 10.7084 3.06688
O 24.4763 1.4719 1.71983
O 27.6971 4.78801 3.15015
O 26.8463 2.49201 2.16998
O 27.6358 4.41349 0.564958
O 30.498 6.0425 0
O 26.2785 4.66962 8.24861
O 26.5607 0.595804 0.368697
O 28.4705 5.86971 7.43475
O 26.2753 0.0591932 2.96705
O 33.2622 9.67763 1.12878
O 35.5498 10.7084 1.88932
O 35.1681 1.4719 3.23659
O 31.9473 4.78801 1.80605
O 32.798 2.49201 2.78644
O 32.0085 4.41349 4.39147
O 29.1464 6.0425 4.9562
O 30.6625 4.66962 6.62089
O 33.0836 0.595804 4.58773
O 33.369 0.0591932 1.9896
O 31.9104 2.40737 6.08589
O 34.1981 1.37656 6.84597
O 33.8164 10.6131 8.19302
O 30.5956 7.29699 6.7627
O 31.4463 9.59299 7.7431
O 30.6569 7.67151 9.34789
O 32.0141 7.41538 1.66447
O 31.732 11.4892 9.54415
O 29.8221 6.21529 2.47855
O 32.0173 12.0258 6.94603
O 25.0306 2.40737 8.78362
O 22.7429 1.37656 8.02353
O 23.1246 10.6131 6.67648
O 26.3454 7.29699 8.1068
O 25.4947 9.59299 7.12641
O 26.2841 7.67151 5.52161
O 27.6302 7.41538 3.29218
O 25.209 11.4892 5.32535
O 24.9237 12.0258 7.92347
O 36.5482 3.63513 3.82742
O 34.2606 4.66594 3.06688
O 34.6423 7.5144 1.71983
O 37.8631 10.8305 3.15015
O 37.0123 8.53452 2.16998
O 37.8018 10.456 0.564958
O 20.332 0 0
O 36.4445 10.7121 8.24861
O 36.7267 6.6383 0.368697
O 18.3045 11.9122 7.43475
O 36.4413 6.10169 2.96705
O 23.0962 3.63513 1.12878
O 25.3837 4.66594 1.88932
O 25.0021 7.5144 3.23659
O 21.7813 10.8305 1.80605
O 22.632 8.53452 2.78644
O 21.8425 10.456 4.39147
O 18.9804 0 4.9562
O 20.4965 10.7121 6.62089
O 22.9176 6.6383 4.58773
O 23.203 6.10169 1.9896
O 21.7444 8.44987 6.08589
O 24.0321 7.41906 6.84597
O 23.6504 4.5706 8.19302
O 20.4296 1.25449 6.7627
O 21.2803 3.55049 7.7431
O 20.4909 1.62901 9.34789
O 21.8481 1.37288 1.66447
O 21.566 5.4467 9.54415
O 19.6561 0.172785 2.47855
O 21.8513 5.98331 6.94603
O 35.1966 8.44987 8.78362
O 32.9089 7.41906 8.02353
O 33.2906 4.5706 6.67648
O 36.5114 1.25449 8.1068
O 35.6607 3.55049 7.12641
O 36.4501 1.62901 5.52161
O 37.7962 1.37288 3.29218
O 35.375 5.4467 5.32535
O 35.0897 5.98331 7.92347
O 23.6788 9.67763 13.7407
O 21.3912 10.7084 12.9802
O 21.7729 1.4719 11.6329
O 24.9937 4.78801 13.0635
O 24.143 2.49201 12.0831
O 24.9325 4.41349 10.478
O 27.7946 6.0425 9.9133
O 23.5752 4.66962 18.1617
O 23.8574 0.595804 10.2818
O 25.7671 5.86971 17.3481
O 23.572 0.0591932 12.8799
O 30.5588 9.67763 11.0421
O 32.8464 10.7084 11.8026
O 32.4647 1.4719 13.1497
O 29.2439 4.78801 11.7194
O 30.0947 2.49201 12.6995
O 29.3052 4.41349 14.3045
O 26.443 6.0425 14.8695
O 27.9591 4.66962 16.534
O 30.3803 0.595804 14.5008
O 30.6657 0.0591932 11.9025
O 29.2072 2.40737 15.9983
O 31.4947 1.37656 16.7588
O 31.1131 10.6131 18.1061
O 27.8923 7.29699 16.6756
O 28.743 9.59299 17.6559
O 27.9535 7.67151 19.261
O 29.3108 7.41538 11.5773
O 29.0286 11.4892 19.4572
O 27.1189 6.21529 12.3909
O 29.314 12.0258 16.8591
O 22.3272 2.40737 18.6969
O 20.0396 1.37656 17.9364
O 20.4213 10.6131 16.5893
O 23.6421 7.29699 18.0197
O 22.7913 9.59299 17.0395
O 23.5808 7.67151 15.4345
O 24.9269 7.41538 13.205
O 22.5057 11.4892 15.2382
O 22.2203 12.0258 17.8365
O 33.8448 3.63513 13.7407
O 31.5572 4.66594 12.9802
O 31.9389 7.5144 11.6329
O 35.1597 10.8305 13.0635
O 34.309 8.53452 12.0831
O 35.0985 10.456 10.478
O 17.6286 0 9.9133
O 33.7412 10.7121 18.1617
O 34.0234 6.6383 10.2818
O 15.6011 11.9122 17.3481
O 33.738 6.10169 12.8799
O 20.3928 3.63513 11.0421
O 22.6804 4.66594 11.8026
O 22.2987 7.5144 13.1497
O 19.0779 10.8305 11.7194
O 19.9287 8.53452 12.6995
O 19.1392 10.456 14.3045
O 16.277 0 14.8695
O 17.7931 10.7121 16.534
O 20.2143 6.6383 14.5008
O 20.4997 6.10169 11.9025
O 19.0412 8.44987 15.9983
O 21.3287 7.41906 16.7588
O 20.9471 4.5706 18.1061
O 17.7263 1.25449 16.6756
O 18.577 3.55049 17.6559
O 17.7875 1.62901 19.261
O 19.1448 1.37288 11.5773
O 18.8626 5.4467 19.4572
O 16.9529 0.172785 12.3909
O 19.148 5.98331 16.8591
O 32.4932 8.44987 18.6969
O 30.2056 7.41906 17.9364
O 30.5873 4.5706 16.5893
O 33.8081 1.25449 18.0197
O 32.9573 3.55049 17.0395
O 33.7468 1.62901 15.4345
O 35.0929 1.37288 13.205
O 32.6717 5.4467 15.2382
O 32.3863 5.98331 17.8365
O 20.9756 9.67763 23.6531
O 18.6879 10.7084 22.893
O 19.0696 1.4719 21.546
O 22.2904 4.78801 22.9763
O 21.4397 2.49201 21.9959
O 22.2291 4.41349 20.3911
O 25.0914 6.0425 19.8257
O 20.8719 4.66962 28.0745
O 21.154 0.595804 20.1949
O 23.0639 5.86971 27.2605
O 20.8687 0.0591932 22.793
O 27.8554 9.67763 20.9554
O 30.143 10.7084 21.7155
O 29.7614 1.4719 23.0625
O 26.5406 4.78801 21.6322
O 27.3913 2.49201 22.6126
O 26.6019 4.41349 24.2174
O 23.7396 6.0425 24.7828
O 25.2558 4.66962 26.4468
O 27.677 0.595804 24.4137
O 27.9623 0.0591932 21.8155
O 26.5038 2.40737 25.9116
O 28.7914 1.37656 26.6721
O 28.4097 10.6131 28.0192
O 25.1889 7.29699 26.5889
O 26.0397 9.59299 27.569
O 25.2502 7.67151 29.174
O 26.6075 7.41538 21.4904
O 26.3253 11.4892 29.3703
O 24.4155 6.21529 22.3043