ITEM: TIMESTEP
0
ITEM: NUMBER OF ATOMS
2448
ITEM: BOX BOUNDS xy xz yz pp pp pp
0.0000000000000000e+00 3.2554000899999998e+01 0.0000000000000000e+00
0.0000000000000000e+00 3.2554000899999998e+01 0.0000000000000000e+00
0.0000000000000000e+00 3.2554000899999998e+01 0.0000000000000000e+00
ITEM: ATOMS element xs ys zs 
Zn 0.633194 0.761192 0.509132 
Zn 0.883209 0.511177 0.759148 
Zn 0.633194 0.511177 0.759148 
Zn 0.883209 0.761192 0.509132 
Zn 0.508202 0.636169 0.759148 
Zn 0.758217 0.886185 0.509132 
Zn 0.758217 0.511177 0.634125 
Zn 0.508202 0.761192 0.88414 
Zn 0.758217 0.636169 0.509132 
Zn 0.508202 0.886185 0.759148 
Zn 0.508202 0.761192 0.634125 
Zn 0.758217 0.511177 0.88414 
C 0.823219 0.994804 0.694115 
N 0.810226 0.511177 0.657959 
N 0.859375 0.511177 0.707115 
C 0.839897 0.539558 0.647484 
C 0.86985 0.539558 0.677437 
C 0.800331 0.962425 0.717003 
H 0.897713 0.557686 0.67968 
H 0.837654 0.557686 0.619629 
H 0.777969 0.977509 0.739365 
H 0.782517 0.94249 0.694366 
H 0.822975 0.94249 0.734817 
C 0.576614 0.741104 0.94072 
N 0.560211 0.761192 0.907944 
N 0.60939 0.761192 0.95713 
C 0.584015 0.795967 0.903374 
C 0.613968 0.795967 0.933319 
C 0.560425 0.701477 0.956909 
H 0.638077 0.818146 0.939308 
H 0.578026 0.818146 0.879257 
H 0.536064 0.707863 0.98127 
H 0.546204 0.683105 0.93071 
H 0.586624 0.683105 0.971169 
C 0.693184 0.52755 0.694115 
N 0.706184 0.511177 0.657959 
N 0.657036 0.511177 0.707115 
C 0.676506 0.982796 0.647484 
C 0.646561 0.982796 0.677437 
C 0.716072 0.559929 0.717003 
H 0.618698 0.964668 0.67968 
H 0.678749 0.964668 0.619629 
H 0.738434 0.544846 0.739365 
H 0.733887 0.579864 0.694366 
H 0.693436 0.579864 0.734817 
C 0.939796 0.741104 0.94072 
N 0.9562 0.761192 0.907944 
N 0.907021 0.761192 0.95713 
C 0.932388 0.795967 0.903374 
C 0.902443 0.795967 0.933319 
C 0.955978 0.701477 0.956909 
H 0.878326 0.818146 0.939308 
H 0.938377 0.818146 0.879257 
H 0.939888 0.674843 0.940819 
H 0.990448 0.699631 0.95092 
H 0.949989 0.699631 0.991379 
C 0.568962 0.755173 0.569893 
N 0.560211 0.761192 0.610321 
N 0.60939 0.761192 0.561142 
C 0.597252 0.771576 0.628136 
C 0.627205 0.771576 0.598183 
C 0.53772 0.743347 0.53865 
H 0.659737 0.778214 0.600639 
H 0.599709 0.778214 0.660667 
H 0.535789 0.70842 0.53672 
H 0.0065155 0.756248 0.547867 
H 0.546936 0.756248 0.00744629 
C 0.82061 0.522758 0.821533 
N 0.810226 0.511177 0.860306 
N 0.859375 0.511177 0.811157 
C 0.844414 0.991119 0.87529 
C 0.874367 0.991119 0.845345 
C 0.792595 0.545647 0.793518 
H 0.905113 0.978279 0.845985 
H 0.845055 0.978279 0.906044 
H 0.773758 0.522881 0.774689 
H 0.771057 0.565796 0.812416 
H 0.811485 0.565796 0.771988 
C 0.943199 0.777565 0.574135 
N 0.9562 0.761192 0.610321 
N 0.907021 0.761192 0.561142 
C 0.926491 0.73278 0.620796 
C 0.896576 0.73278 0.590843 
C 0.966087 0.809944 0.551247 
H 0.868683 0.714653 0.5886 
H 0.928734 0.714653 0.648651 
H 0.955399 0.841522 0.561935 
H 0.000396729 0.806503 0.557388 
H 0.959946 0.806503 0.516937 
C 0.693184 0.994804 0.82415 
N 0.706184 0.511177 0.860306 
N 0.657036 0.511177 0.811157 
C 0.676506 0.539558 0.870781 
C 0.646561 0.539558 0.840828 
C 0.716072 0.962425 0.801262 
H 0.618698 0.557686 0.838585 
H 0.678749 0.557686 0.898636 
H 0.738434 0.977509 0.7789 
H 0.733887 0.94249 0.823898 
H 0.693436 0.94249 0.783447 
C 0.695801 0.823585 0.520714 
N 0.706184 0.86235 0.509132 
N 0.657036 0.813202 0.509132 
C 0.671989 0.877342 0.989075 
C 0.642044 0.847389 0.989075 
C 0.723816 0.79557 0.543602 
H 0.61129 0.84803 0.976234 
H 0.671349 0.908089 0.976234 
H 0.742645 0.776733 0.520836 
H 0.745346 0.814461 0.563751 
H 0.704926 0.774033 0.563751 
C 0.945816 0.573601 0.747536 
N 0.9562 0.612366 0.759148 
N 0.907021 0.563187 0.759148 
C 0.921974 0.627327 0.779205 
C 0.892059 0.597404 0.779205 
C 0.973831 0.545555 0.724655 
H 0.861305 0.598015 0.792015 
H 0.921364 0.658073 0.792015 
H 0.969315 0.550064 0.690247 
H 0.0070343 0.552803 0.733131 
H 0.966614 0.512344 0.733131 
C 0.528259 0.692787 0.82753 
N 0.508202 0.70916 0.860306 
N 0.508202 0.660011 0.811157 
C 0.973427 0.685349 0.864914 
C 0.973427 0.655403 0.834961 
C 0.567917 0.708969 0.811371 
H 0.951248 0.631317 0.828972 
H 0.951248 0.691338 0.889023 
H 0.561501 0.733299 0.78701 
H 0.586288 0.723198 0.83754 
H 0.586288 0.68277 0.797119 
C 0.741814 0.946175 0.574135 
N 0.758217 0.959175 0.610321 
N 0.758217 0.909988 0.561142 
C 0.786598 0.929466 0.620796 
C 0.786598 0.899551 0.590843 
C 0.709465 0.969063 0.551247 
H 0.804726 0.871658 0.5886 
H 0.804726 0.931709 0.648651 
H 0.677856 0.958374 0.561935 
H 0.712875 0.00337219 0.557388 
H 0.712875 0.962921 0.516937 
C 0.573204 0.946175 0.742744 
N 0.560211 0.909988 0.759148 
N 0.60939 0.959175 0.759148 
C 0.589912 0.899551 0.787529 
C 0.619865 0.929466 0.787529 
C 0.550316 0.969063 0.710396 
H 0.647728 0.931709 0.805656 
H 0.587669 0.871658 0.805656 
H 0.561005 0.958374 0.678787 
H 0.516006 0.962921 0.713806 
H 0.556457 0.00337219 0.713806 
C 0.823219 0.696159 0.525505 
N 0.810226 0.660011 0.509132 
N 0.859375 0.70916 0.509132 
C 0.839897 0.649536 0.980751 
C 0.86985 0.679481 0.980751 
C 0.800331 0.719048 0.557884 
H 0.897713 0.681725 0.962624 
H 0.837654 0.621674 0.962624 
H 0.777969 0.741409 0.542801 
H 0.782517 0.696411 0.57782 
H 0.822975 0.736862 0.57782 
C 0.514191 0.700401 0.698357 
N 0.508202 0.70916 0.657959 
N 0.508202 0.660011 0.707115 
C 0.997818 0.672142 0.640144 
C 0.997818 0.642189 0.670097 
C 0.526047 0.731674 0.72963 
H 0.991188 0.609627 0.667641 
H 0.991188 0.669685 0.607582 
H 0.560944 0.733612 0.73156 
H 0.513115 0.762886 0.720413 
H 0.513115 0.722458 0.760841 
C 0.77459 0.946175 0.94413 
N 0.758217 0.959175 0.907944 
N 0.758217 0.909988 0.95713 
C 0.729805 0.929466 0.897499 
C 0.729805 0.899551 0.927422 
C 0.806969 0.969063 0.967018 
H 0.711678 0.871658 0.929665 
H 0.711678 0.931709 0.869614 
H 0.838547 0.958374 0.956329 
H 0.803528 0.00337219 0.960876 
H 0.803528 0.962921 0.00132751 
C 0.693184 0.696159 0.99276 
N 0.706184 0.660011 0.509132 
N 0.657036 0.70916 0.509132 
C 0.676506 0.649536 0.537514 
C 0.646561 0.679481 0.537514 
C 0.716072 0.719048 0.960381 
H 0.618698 0.681725 0.555641 
H 0.678749 0.621674 0.555641 
H 0.738434 0.741409 0.975464 
H 0.733887 0.696411 0.940445 
H 0.693436 0.736862 0.940445 
C 0.939796 0.942772 0.779205 
N 0.9562 0.909988 0.759148 
N 0.907021 0.959175 0.759148 
C 0.932388 0.905418 0.724342 
C 0.902443 0.935364 0.724342 
C 0.955978 0.958954 0.818832 
H 0.878326 0.941353 0.702164 
H 0.938377 0.881302 0.702164 
H 0.939888 0.942863 0.845467 
H 0.990448 0.952965 0.820709 
H 0.949989 0.993423 0.820709 
C 0.77459 0.57618 0.574135 
N 0.758217 0.612366 0.561142 
N 0.758217 0.563187 0.610321 
C 0.729805 0.622841 0.590843 
C 0.729805 0.592888 0.620796 
C 0.806969 0.553291 0.551247 
H 0.711678 0.590645 0.648651 
H 0.711678 0.650703 0.5886 
H 0.791855 0.53096 0.528915 
H 0.826874 0.575935 0.533462 
H 0.826874 0.535507 0.573883 
C 0.00221252 0.821953 0.819908 
N 0.508202 0.86235 0.811157 
N 0.508202 0.813202 0.860306 
C 0.518585 0.880165 0.848198 
C 0.518585 0.850243 0.87812 
C 0.990356 0.79068 0.788635 
H 0.525223 0.852669 0.910683 
H 0.525223 0.912727 0.850624 
H 0.95546 0.78875 0.786705 
H 0.00328827 0.799896 0.757431 
H 0.00328827 0.759476 0.797852 
C 0.573204 0.57618 0.77552 
N 0.560211 0.612366 0.759148 
N 0.60939 0.563187 0.759148 
C 0.589912 0.622841 0.730736 
C 0.619865 0.592888 0.730736 
C 0.550316 0.553291 0.807899 
H 0.647728 0.590645 0.712608 
H 0.587669 0.650703 0.712608 
H 0.561005 0.56398 0.839478 
H 0.516006 0.559433 0.804459 
H 0.556457 0.518982 0.804459 
C 0.823219 0.826195 0.99276 
N 0.810226 0.86235 0.509132 
N 0.859375 0.813202 0.509132 
C 0.839897 0.872826 0.537514 
C 0.86985 0.842873 0.537514 
C 0.800331 0.803307 0.960381 
H 0.897713 0.84063 0.555641 
H 0.837654 0.900688 0.555641 
H 0.777969 0.780945 0.975464 
H 0.782517 0.825951 0.940445 
H 0.822975 0.785492 0.940445 
C 0.741814 0.57618 0.94413 
N 0.758217 0.563187 0.907944 
N 0.758217 0.612366 0.95713 
C 0.786598 0.592888 0.897499 
C 0.786598 0.622841 0.927422 
C 0.709465 0.553291 0.967018 
H 0.804726 0.650703 0.929665 
H 0.804726 0.590645 0.869614 
H 0.677856 0.56398 0.956329 
H 0.712875 0.518982 0.960876 
H 0.712875 0.559433 0.00132751 
C 0.988144 0.829575 0.690742 
N 0.508202 0.813202 0.657959 
N 0.508202 0.86235 0.707115 
C 0.542976 0.837006 0.653351 
C 0.542976 0.866959 0.683304 
C 0.948486 0.813416 0.706924 
H 0.565155 0.891068 0.689293 
H 0.565155 0.831017 0.629272 
H 0.921883 0.829483 0.690834 
H 0.94664 0.778946 0.700935 
H 0.94664 0.819374 0.741363 
Zn 0.633194 0.761192 0.00913239 
Zn 0.883209 0.511177 0.259148 
Zn 0.633194 0.511177 0.259148 
Zn 0.883209 0.761192 0.00913239 
Zn 0.508202 0.636169 0.259148 
Zn 0.758217 0.886185 0.00913239 
Zn 0.758217 0.511177 0.134125 
Zn 0.508202 0.761192 0.38414 
Zn 0.758217 0.636169 0.00913239 
Zn 0.508202 0.886185 0.259148 
Zn 0.508202 0.761192 0.134125 
Zn 0.758217 0.511177 0.38414 
C 0.823219 0.994804 0.194115 
N 0.810226 0.511177 0.157959 
N 0.859375 0.511177 0.207115 
C 0.839897 0.539558 0.147484 
C 0.86985 0.539558 0.177437 
C 0.800331 0.962425 0.217003 
H 0.897713 0.557686 0.17968 
H 0.837654 0.557686 0.119629 
H 0.777969 0.977509 0.239365 
H 0.782517 0.94249 0.194366 
H 0.822975 0.94249 0.234818 
C 0.576614 0.741104 0.44072 
N 0.560211 0.761192 0.407974 
N 0.60939 0.761192 0.45713 
C 0.584015 0.795967 0.403374 
C 0.613968 0.795967 0.433319 
C 0.560425 0.701477 0.456909 
H 0.638077 0.818146 0.439308 
H 0.578026 0.818146 0.379257 
H 0.536064 0.707863 0.48127 
H 0.546204 0.683105 0.43071 
H 0.586624 0.683105 0.471169 
C 0.693184 0.52755 0.194115 
N 0.706184 0.511177 0.157959 
N 0.657036 0.511177 0.207115 
C 0.676506 0.982796 0.147484 
C 0.646561 0.982796 0.177437 
C 0.716072 0.559929 0.217003 
H 0.618698 0.964668 0.17968 
H 0.678749 0.964668 0.119629 
H 0.738434 0.544846 0.239365 
H 0.733887 0.579864 0.194366 
H 0.693436 0.579864 0.234818 
C 0.939796 0.741104 0.44072 
N 0.9562 0.761192 0.407974 
N 0.907021 0.761192 0.45713 
C 0.932388 0.795967 0.403374 
C 0.902443 0.795967 0.433319 
C 0.955978 0.701477 0.456909 
H 0.878326 0.818146 0.439308 
H 0.938377 0.818146 0.379257 
H 0.939888 0.674843 0.440819 
H 0.990448 0.699631 0.45092 
H 0.949989 0.699631 0.491379 
C 0.568962 0.755173 0.0698929 
N 0.560211 0.761192 0.110321 
N 0.60939 0.761192 0.061142 
C 0.597252 0.771576 0.128136 
C 0.627205 0.771576 0.0981827 
C 0.53772 0.743347 0.0386505 
H 0.659737 0.778214 0.100639 
H 0.599709 0.778214 0.160698 
H 0.535789 0.70842 0.0367203 
H 0.0065155 0.756248 0.0478668 
H 0.546936 0.756248 0.507446 
C 0.82061 0.522758 0.321533 
N 0.810226 0.511177 0.360306 
N 0.859375 0.511177 0.311157 
C 0.844414 0.991119 0.37529 
C 0.874367 0.991119 0.345345 
C 0.792595 0.545647 0.293518 
H 0.905113 0.978279 0.345985 
H 0.845055 0.978279 0.406044 
H 0.773758 0.522881 0.274689 
H 0.771057 0.565796 0.312416 
H 0.811485 0.565796 0.271988 
C 0.943199 0.777565 0.0741348 
N 0.9562 0.761192 0.110321 
N 0.907021 0.761192 0.061142 
C 0.926491 0.73278 0.120796 
C 0.896576 0.73278 0.0908432 
C 0.966087 0.809944 0.0512466 
H 0.868683 0.714653 0.0886002 
H 0.928734 0.714653 0.148651 
H 0.955399 0.841522 0.0619354 
H 0.000396729 0.806503 0.0573883 
H 0.959946 0.806503 0.0169678 
C 0.693184 0.994804 0.32415 
N 0.706184 0.511177 0.360306 
N 0.657036 0.511177 0.311157 
C 0.676506 0.539558 0.370781 
C 0.646561 0.539558 0.340828 
C 0.716072 0.962425 0.301262 
H 0.618698 0.557686 0.338585 
H 0.678749 0.557686 0.398636 
H 0.738434 0.977509 0.278931 
H 0.733887 0.94249 0.323898 
H 0.693436 0.94249 0.283478 
C 0.695801 0.823585 0.0207138 
N 0.706184 0.86235 0.00913239 
N 0.657036 0.813202 0.00913239 
C 0.671989 0.877342 0.489075 
C 0.642044 0.847389 0.489075 
C 0.723816 0.79557 0.043602 
H 0.61129 0.84803 0.476234 
H 0.671349 0.908089 0.476234 
H 0.742645 0.776733 0.0208359 
H 0.745346 0.814461 0.0637512 
H 0.704926 0.774033 0.0637512 
C 0.945816 0.573601 0.247566 
N 0.9562 0.612366 0.259148 
N 0.907021 0.563187 0.259148 
C 0.921974 0.627327 0.279205 
C 0.892059 0.597404 0.279205 
C 0.973831 0.545555 0.224686 
H 0.861305 0.598015 0.292015 
H 0.921364 0.658073 0.292015 
H 0.969315 0.550064 0.190247 
H 0.0070343 0.552803 0.233131 
H 0.966614 0.512344 0.233131 
C 0.528259 0.692787 0.32756 
N 0.508202 0.70916 0.360306 
N 0.508202 0.660011 0.311157 
C 0.973427 0.685349 0.364914 
C 0.973427 0.655403 0.334961 
C 0.567917 0.708969 0.311371 
H 0.951248 0.631317 0.328972 
H 0.951248 0.691338 0.389023 
H 0.561501 0.733299 0.28701 
H 0.586288 0.723198 0.33757 
H 0.586288 0.68277 0.297119 
C 0.741814 0.946175 0.0741348 
N 0.758217 0.959175 0.110321 
N 0.758217 0.909988 0.061142 
C 0.786598 0.929466 0.120796 
C 0.786598 0.899551 0.0908432 
C 0.709465 0.969063 0.0512466 
H 0.804726 0.871658 0.0886002 
H 0.804726 0.931709 0.148651 
H 0.677856 0.958374 0.0619354 
H 0.712875 0.00337219 0.0573883 
H 0.712875 0.962921 0.0169678 
C 0.573204 0.946175 0.242744 
N 0.560211 0.909988 0.259148 
N 0.60939 0.959175 0.259148 
C 0.589912 0.899551 0.287529 
C 0.619865 0.929466 0.287529 
C 0.550316 0.969063 0.210396 
H 0.647728 0.931709 0.305656 
H 0.587669 0.871658 0.305656 
H 0.561005 0.958374 0.178787 
H 0.516006 0.962921 0.213806 
H 0.556457 0.00337219 0.213806 
C 0.823219 0.696159 0.0255356 
N 0.810226 0.660011 0.00913239 
N 0.859375 0.70916 0.00913239 
C 0.839897 0.649536 0.480751 
C 0.86985 0.679481 0.480751 
C 0.800331 0.719048 0.0578842 
H 0.897713 0.681725 0.462624 
H 0.837654 0.621674 0.462624 
H 0.777969 0.741409 0.0428009 
H 0.782517 0.696411 0.0778198 
H 0.822975 0.736862 0.0778198 
C 0.514191 0.700401 0.198357 
N 0.508202 0.70916 0.157959 
N 0.508202 0.660011 0.207115 
C 0.997818 0.672142 0.140144 
C 0.997818 0.642189 0.170097 
C 0.526047 0.731674 0.22963 
H 0.991188 0.609627 0.167641 
H 0.991188 0.669685 0.107582 
H 0.560944 0.733612 0.23156 
H 0.513115 0.762886 0.220413 
H 0.513115 0.722458 0.260841 
C 0.77459 0.946175 0.44413 
N 0.758217 0.959175 0.407974 
N 0.758217 0.909988 0.45713 
C 0.729805 0.929466 0.397499 
C 0.729805 0.899551 0.427452 
C 0.806969 0.969063 0.467018 
H 0.711678 0.871658 0.429665 
H 0.711678 0.931709 0.369644 
H 0.838547 0.958374 0.45636 
H 0.803528 0.00337219 0.460876 
H 0.803528 0.962921 0.501328 
C 0.693184 0.696159 0.49276 
N 0.706184 0.660011 0.00913239 
N 0.657036 0.70916 0.00913239 
C 0.676506 0.649536 0.0375137 
C 0.646561 0.679481 0.0375137 
C 0.716072 0.719048 0.460381 
H 0.618698 0.681725 0.0556412 
H 0.678749 0.621674 0.0556412 
H 0.738434 0.741409 0.475464 
H 0.733887 0.696411 0.440475 
H 0.693436 0.736862 0.440475 
C 0.939796 0.942772 0.279205 
N 0.9562 0.909988 0.259148 
N 0.907021 0.959175 0.259148 
C 0.932388 0.905418 0.224373 
C 0.902443 0.935364 0.224373 
C 0.955978 0.958954 0.318832 
H 0.878326 0.941353 0.202164 
H 0.938377 0.881302 0.202164 
H 0.939888 0.942863 0.345467 
H 0.990448 0.952965 0.320709 
H 0.949989 0.993423 0.320709 
C 0.77459 0.57618 0.0741348 
N 0.758217 0.612366 0.061142 
N 0.758217 0.563187 0.110321 
C 0.729805 0.622841 0.0908432 
C 0.729805 0.592888 0.120796 
C 0.806969 0.553291 0.0512466 
H 0.711678 0.590645 0.148651 
H 0.711678 0.650703 0.0886002 
H 0.791855 0.53096 0.0289154 
H 0.826874 0.575935 0.0334625 
H 0.826874 0.535507 0.0738831 
C 0.00221252 0.821953 0.319908 
N 0.508202 0.86235 0.311157 
N 0.508202 0.813202 0.360306 
C 0.518585 0.880165 0.348198 
C 0.518585 0.850243 0.37812 
C 0.990356 0.79068 0.288635 
H 0.525223 0.852669 0.410683 
H 0.525223 0.912727 0.350624 
H 0.95546 0.78875 0.286705 
H 0.00328827 0.799896 0.257431 
H 0.00328827 0.759476 0.297852 
C 0.573204 0.57618 0.27552 
N 0.560211 0.612366 0.259148 
N 0.60939 0.563187 0.259148 
C 0.589912 0.622841 0.230736 
C 0.619865 0.592888 0.230736 
C 0.550316 0.553291 0.307899 
H 0.647728 0.590645 0.212608 
H 0.587669 0.650703 0.212608 
H 0.561005 0.56398 0.339478 
H 0.516006 0.559433 0.304459 
H 0.556457 0.518982 0.304459 
C 0.823219 0.826195 0.49276 
N 0.810226 0.86235 0.00913239 
N 0.859375 0.813202 0.00913239 
C 0.839897 0.872826 0.0375137 
C 0.86985 0.842873 0.0375137 
C 0.800331 0.803307 0.460381 
H 0.897713 0.84063 0.0556412 
H 0.837654 0.900688 0.0556412 
H 0.777969 0.780945 0.475464 
H 0.782517 0.825951 0.440475 
H 0.822975 0.785492 0.440475 
C 0.741814 0.57618 0.44413 
N 0.758217 0.563187 0.407974 
N 0.758217 0.612366 0.45713 
C 0.786598 0.592888 0.397499 
C 0.786598 0.622841 0.427452 
C 0.709465 0.553291 0.467018 
H 0.804726 0.650703 0.429665 
H 0.804726 0.590645 0.369644 
H 0.677856 0.56398 0.45636 
H 0.712875 0.518982 0.460876 
H 0.712875 0.559433 0.501328 
C 0.988144 0.829575 0.190735 
N 0.508202 0.813202 0.157959 
N 0.508202 0.86235 0.207115 
C 0.542976 0.837006 0.153389 
C 0.542976 0.866959 0.183304 
C 0.948486 0.813416 0.206924 
H 0.565155 0.891068 0.189293 
H 0.565155 0.831017 0.129272 
H 0.921883 0.829483 0.190834 
H 0.94664 0.778946 0.200935 
H 0.94664 0.819374 0.241364 
Zn 0.633194 0.261192 0.509132 
Zn 0.883209 0.0111771 0.759148 
Zn 0.633194 0.0111771 0.759148 
Zn 0.883209 0.261192 0.509132 
Zn 0.508202 0.136169 0.759148 
Zn 0.758217 0.386185 0.509132 
Zn 0.758217 0.0111771 0.634125 
Zn 0.508202 0.261192 0.88414 
Zn 0.758217 0.136169 0.509132 
Zn 0.508202 0.386185 0.759148 
Zn 0.508202 0.261192 0.634125 
Zn 0.758217 0.0111771 0.88414 
C 0.823219 0.494804 0.694115 
N 0.810226 0.0111771 0.657959 
N 0.859375 0.0111771 0.707115 
C 0.839897 0.0395584 0.647484 
C 0.86985 0.0395584 0.677437 
C 0.800331 0.462425 0.717003 
H 0.897713 0.0576858 0.67968 
H 0.837654 0.0576858 0.619629 
H 0.777969 0.477509 0.739365 
H 0.782517 0.44252 0.694366 
H 0.822975 0.44252 0.734817 
C 0.576614 0.241104 0.94072 
N 0.560211 0.261192 0.907944 
N 0.60939 0.261192 0.95713 
C 0.584015 0.295967 0.903374 
C 0.613968 0.295967 0.933319 
C 0.560425 0.201477 0.956909 
H 0.638077 0.318146 0.939308 
H 0.578026 0.318146 0.879257 
H 0.536064 0.207863 0.98127 
H 0.546204 0.183105 0.93071 
H 0.586624 0.183105 0.971169 
C 0.693184 0.0275803 0.694115 
N 0.706184 0.0111771 0.657959 
N 0.657036 0.0111771 0.707115 
C 0.676506 0.482796 0.647484 
C 0.646561 0.482796 0.677437 
C 0.716072 0.0599289 0.717003 
H 0.618698 0.464668 0.67968 
H 0.678749 0.464668 0.619629 
H 0.738434 0.0448456 0.739365 
H 0.733887 0.0798645 0.694366 
H 0.693436 0.0798645 0.734817 
C 0.939796 0.241104 0.94072 
N 0.9562 0.261192 0.907944 
N 0.907021 0.261192 0.95713 
C 0.932388 0.295967 0.903374 
C 0.902443 0.295967 0.933319 
C 0.955978 0.201477 0.956909 
H 0.878326 0.318146 0.939308 
H 0.938377 0.318146 0.879257 
H 0.939888 0.174873 0.940819 
H 0.990448 0.199631 0.95092 
H 0.949989 0.199631 0.991379 
C 0.568962 0.255173 0.569893 
N 0.560211 0.261192 0.610321 
N 0.60939 0.261192 0.561142 
C 0.597252 0.271576 0.628136 
C 0.627205 0.271576 0.598183 
C 0.53772 0.243347 0.53865 
H 0.659737 0.278214 0.600639 
H 0.599709 0.278214 0.660667 
H 0.535789 0.20842 0.53672 
H 0.0065155 0.256248 0.547867 
H 0.546936 0.256248 0.00744629 
C 0.82061 0.0227585 0.821533 
N 0.810226 0.0111771 0.860306 
N 0.859375 0.0111771 0.811157 
C 0.844414 0.491119 0.87529 
C 0.874367 0.491119 0.845345 
C 0.792595 0.0456467 0.793518 
H 0.905113 0.478279 0.845985 
H 0.845055 0.478279 0.906044 
H 0.773758 0.0228806 0.774689 
H 0.771057 0.0657959 0.812416 
H 0.811485 0.0657959 0.771988 
C 0.943199 0.277565 0.574135 
N 0.9562 0.261192 0.610321 
N 0.907021 0.261192 0.561142 
C 0.926491 0.23278 0.620796 
C 0.896576 0.23278 0.590843 
C 0.966087 0.309944 0.551247 
H 0.868683 0.214653 0.5886 
H 0.928734 0.214653 0.648651 
H 0.955399 0.341522 0.561935 
H 0.000396729 0.306503 0.557388 
H 0.959946 0.306503 0.516937 
C 0.693184 0.494804 0.82415 
N 0.706184 0.0111771 0.860306 
N 0.657036 0.0111771 0.811157 
C 0.676506 0.0395584 0.870781 
C 0.646561 0.0395584 0.840828 
C 0.716072 0.462425 0.801262 
H 0.618698 0.0576858 0.838585 
H 0.678749 0.0576858 0.898636 
H 0.738434 0.477509 0.7789 
H 0.733887 0.44252 0.823898 
H 0.693436 0.44252 0.783447 
C 0.695801 0.323586 0.520714 
N 0.706184 0.36235 0.509132 
N 0.657036 0.313202 0.509132 
C 0.671989 0.377342 0.989075 
C 0.642044 0.347389 0.989075 
C 0.723816 0.29557 0.543602 
H 0.61129 0.34803 0.976234 
H 0.671349 0.408089 0.976234 
H 0.742645 0.276733 0.520836 
H 0.745346 0.314461 0.563751 
H 0.704926 0.274033 0.563751 
C 0.945816 0.0736008 0.747536 
N 0.9562 0.112366 0.759148 
N 0.907021 0.0631866 0.759148 
C 0.921974 0.127327 0.779205 
C 0.892059 0.0974045 0.779205 
C 0.973831 0.0455551 0.724655 
H 0.861305 0.0980453 0.792015 
H 0.921364 0.158073 0.792015 
H 0.969315 0.0500641 0.690247 
H 0.0070343 0.052803 0.733131 
H 0.966614 0.0123444 0.733131 
C 0.528259 0.192787 0.82753 
N 0.508202 0.20916 0.860306 
N 0.508202 0.160011 0.811157 
C 0.973427 0.185349 0.864914 
C 0.973427 0.155434 0.834961 
C 0.567917 0.208969 0.811371 
H 0.951248 0.131317 0.828972 
H 0.951248 0.191338 0.889023 
H 0.561501 0.233299 0.78701 
H 0.586288 0.223198 0.83754 
H 0.586288 0.18277 0.797119 
C 0.741814 0.446175 0.574135 
N 0.758217 0.459175 0.610321 
N 0.758217 0.410027 0.561142 
C 0.786598 0.429497 0.620796 
C 0.786598 0.399551 0.590843 
C 0.709465 0.469063 0.551247 
H 0.804726 0.371689 0.5886 
H 0.804726 0.431709 0.648651 
H 0.677856 0.458405 0.561935 
H 0.712875 0.503372 0.557388 
H 0.712875 0.462921 0.516937 
C 0.573204 0.446175 0.742744 
N 0.560211 0.410027 0.759148 
N 0.60939 0.459175 0.759148 
C 0.589912 0.399551 0.787529 
C 0.619865 0.429497 0.787529 
C 0.550316 0.469063 0.710396 
H 0.647728 0.431709 0.805656 
H 0.587669 0.371689 0.805656 
H 0.561005 0.458405 0.678787 
H 0.516006 0.462921 0.713806 
H 0.556457 0.503372 0.713806 
C 0.823219 0.196159 0.525505 
N 0.810226 0.160011 0.509132 
N 0.859375 0.20916 0.509132 
C 0.839897 0.149536 0.980751 
C 0.86985 0.179482 0.980751 
C 0.800331 0.219048 0.557884 
H 0.897713 0.181725 0.962624 
H 0.837654 0.121674 0.962624 
H 0.777969 0.241409 0.542801 
H 0.782517 0.196411 0.57782 
H 0.822975 0.236862 0.57782 
C 0.514191 0.200401 0.698357 
N 0.508202 0.20916 0.657959 
N 0.508202 0.160011 0.707115 
C 0.997818 0.172142 0.640144 
C 0.997818 0.142189 0.670097 
C 0.526047 0.231674 0.72963 
H 0.991188 0.109627 0.667641 
H 0.991188 0.169685 0.607582 
H 0.560944 0.233612 0.73156 
H 0.513115 0.262886 0.720413 
H 0.513115 0.222458 0.760841 
C 0.77459 0.446175 0.94413 
N 0.758217 0.459175 0.907944 
N 0.758217 0.410027 0.95713 
C 0.729805 0.429497 0.897499 
C 0.729805 0.399551 0.927422 
C 0.806969 0.469063 0.967018 
H 0.711678 0.371689 0.929665 
H 0.711678 0.431709 0.869614 
H 0.838547 0.458405 0.956329 
H 0.803528 0.503372 0.960876 
H 0.803528 0.462921 0.00132751 
C 0.693184 0.196159 0.99276 
N 0.706184 0.160011 0.509132 
N 0.657036 0.20916 0.509132 
C 0.676506 0.149536 0.537514 
C 0.646561 0.179482 0.537514 
C 0.716072 0.219048 0.960381 
H 0.618698 0.181725 0.555641 
H 0.678749 0.121674 0.555641 
H 0.738434 0.241409 0.975464 
H 0.733887 0.196411 0.940445 
H 0.693436 0.236862 0.940445 
C 0.939796 0.442772 0.779205 
N 0.9562 0.410027 0.759148 
N 0.907021 0.459175 0.759148 
C 0.932388 0.405418 0.724342 
C 0.902443 0.435364 0.724342 
C 0.955978 0.458954 0.818832 
H 0.878326 0.441353 0.702164 
H 0.938377 0.381302 0.702164 
H 0.939888 0.442863 0.845467 
H 0.990448 0.452965 0.820709 
H 0.949989 0.493423 0.820709 
C 0.77459 0.0761795 0.574135 
N 0.758217 0.112366 0.561142 
N 0.758217 0.0631866 0.610321 
C 0.729805 0.122841 0.590843 
C 0.729805 0.0928879 0.620796 
C 0.806969 0.0532913 0.551247 
H 0.711678 0.0906448 0.648651 
H 0.711678 0.150703 0.5886 
H 0.791855 0.0309601 0.528915 
H 0.826874 0.0759354 0.533462 
H 0.826874 0.0355072 0.573883 
C 0.00221252 0.321953 0.819908 
N 0.508202 0.36235 0.811157 
N 0.508202 0.313202 0.860306 
C 0.518585 0.380165 0.848198 
C 0.518585 0.350243 0.87812 
C 0.990356 0.29068 0.788635 
H 0.525223 0.352669 0.910683 
H 0.525223 0.412727 0.850624 
H 0.95546 0.28875 0.786705 
H 0.00328827 0.299896 0.757431 
H 0.00328827 0.259476 0.797852 
C 0.573204 0.0761795 0.77552 
N 0.560211 0.112366 0.759148 
N 0.60939 0.0631866 0.759148 
C 0.589912 0.122841 0.730736 
C 0.619865 0.0928879 0.730736 
C 0.550316 0.0532913 0.807899 
H 0.647728 0.0906448 0.712608 
H 0.587669 0.150703 0.712608 
H 0.561005 0.0639801 0.839478 
H 0.516006 0.059433 0.804459 
H 0.556457 0.0190125 0.804459 
C 0.823219 0.326195 0.99276 
N 0.810226 0.36235 0.509132 
N 0.859375 0.313202 0.509132 
C 0.839897 0.372826 0.537514 
C 0.86985 0.342873 0.537514 
C 0.800331 0.303307 0.960381 
H 0.897713 0.34063 0.555641 
H 0.837654 0.400688 0.555641 
H 0.777969 0.280975 0.975464 
H 0.782517 0.325951 0.940445 
H 0.822975 0.285522 0.940445 
C 0.741814 0.0761795 0.94413 
N 0.758217 0.0631866 0.907944 
N 0.758217 0.112366 0.95713 
C 0.786598 0.0928879 0.897499 
C 0.786598 0.122841 0.927422 
C 0.709465 0.0532913 0.967018 
H 0.804726 0.150703 0.929665 
H 0.804726 0.0906448 0.869614 
H 0.677856 0.0639801 0.956329 
H 0.712875 0.0190125 0.960876 
H 0.712875 0.059433 0.00132751 
C 0.988144 0.329605 0.690742 
N 0.508202 0.313202 0.657959 
N 0.508202 0.36235 0.707115 
C 0.542976 0.337006 0.653351 
C 0.542976 0.366959 0.683304 
C 0.948486 0.313416 0.706924 
H 0.565155 0.391068 0.689293 
H 0.565155 0.331017 0.629272 
H 0.921883 0.329483 0.690834 
H 0.94664 0.278946 0.700935 
H 0.94664 0.319374 0.741363 
Zn 0.633194 0.261192 0.00913239 
Zn 0.883209 0.0111771 0.259148 
Zn 0.633194 0.0111771 0.259148 
Zn 0.883209 0.261192 0.00913239 
Zn 0.508202 0.136169 0.259148 
Zn 0.758217 0.386185 0.00913239 
Zn 0.758217 0.0111771 0.134125 
Zn 0.508202 0.261192 0.38414 
Zn 0.758217 0.136169 0.00913239 
Zn 0.508202 0.386185 0.259148 
Zn 0.508202 0.261192 0.134125 
Zn 0.758217 0.0111771 0.38414 
C 0.823219 0.494804 0.194115 
N 0.810226 0.0111771 0.157959 
N 0.859375 0.0111771 0.207115 
C 0.839897 0.0395584 0.147484 
C 0.86985 0.0395584 0.177437 
C 0.800331 0.462425 0.217003 
H 0.897713 0.0576858 0.17968 
H 0.837654 0.0576858 0.119629 
H 0.777969 0.477509 0.239365 
H 0.782517 0.44252 0.194366 
H 0.822975 0.44252 0.234818 
C 0.576614 0.241104 0.44072 
N 0.560211 0.261192 0.407974 
N 0.60939 0.261192 0.45713 
C 0.584015 0.295967 0.403374 
C 0.613968 0.295967 0.433319 
C 0.560425 0.201477 0.456909 
H 0.638077 0.318146 0.439308 
H 0.578026 0.318146 0.379257 
H 0.536064 0.207863 0.48127 
H 0.546204 0.183105 0.43071 
H 0.586624 0.183105 0.471169 
C 0.693184 0.0275803 0.194115 
N 0.706184 0.0111771 0.157959 
N 0.657036 0.0111771 0.207115 
C 0.676506 0.482796 0.147484 
C 0.646561 0.482796 0.177437 
C 0.716072 0.0599289 0.217003 
H 0.618698 0.464668 0.17968 
H 0.678749 0.464668 0.119629 
H 0.738434 0.0448456 0.239365 
H 0.733887 0.0798645 0.194366 
H 0.693436 0.0798645 0.234818 
C 0.939796 0.241104 0.44072 
N 0.9562 0.261192 0.407974 
N 0.907021 0.261192 0.45713 
C 0.932388 0.295967 0.403374 
C 0.902443 0.295967 0.433319 
C 0.955978 0.201477 0.456909 
H 0.878326 0.318146 0.439308 
H 0.938377 0.318146 0.379257 
H 0.939888 0.174873 0.440819 
H 0.990448 0.199631 0.45092 
H 0.949989 0.199631 0.491379 
C 0.568962 0.255173 0.0698929 
N 0.560211 0.261192 0.110321 
N 0.60939 0.261192 0.061142 
C 0.597252 0.271576 0.128136 
C 0.627205 0.271576 0.0981827 
C 0.53772 0.243347 0.0386505 
H 0.659737 0.278214 0.100639 
H 0.599709 0.278214 0.160698 
H 0.535789 0.20842 0.0367203 
H 0.0065155 0.256248 0.0478668 
H 0.546936 0.256248 0.507446 
C 0.82061 0.0227585 0.321533 
N 0.810226 0.0111771 0.360306 
N 0.859375 0.0111771 0.311157 
C 0.844414 0.491119 0.37529 
C 0.874367 0.491119 0.345345 
C 0.792595 0.0456467 0.293518 
H 0.905113 0.478279 0.345985 
H 0.845055 0.478279 0.406044 
H 0.773758 0.0228806 0.274689 
H 0.771057 0.0657959 0.312416 
H 0.811485 0.0657959 0.271988 
C 0.943199 0.277565 0.0741348 
N 0.9562 0.261192 0.110321 
N 0.907021 0.261192 0.061142 
C 0.926491 0.23278 0.120796 
C 0.896576 0.23278 0.0908432 
C 0.966087 0.309944 0.0512466 
H 0.868683 0.214653 0.0886002 
H 0.928734 0.214653 0.148651 
H 0.955399 0.341522 0.0619354 
H 0.000396729 0.306503 0.0573883 
H 0.959946 0.306503 0.0169678 
C 0.693184 0.494804 0.32415 
N 0.706184 0.0111771 0.360306 
N 0.657036 0.0111771 0.311157 
C 0.676506 0.0395584 0.370781 
C 0.646561 0.0395584 0.340828 
C 0.716072 0.462425 0.301262 
H 0.618698 0.0576858 0.338585 
H 0.678749 0.0576858 0.398636 
H 0.738434 0.477509 0.278931 
H 0.733887 0.44252 0.323898 
H 0.693436 0.44252 0.283478 
C 0.695801 0.323586 0.0207138 
N 0.706184 0.36235 0.00913239 
N 0.657036 0.313202 0.00913239 
C 0.671989 0.377342 0.489075 
C 0.642044 0.347389 0.489075 
C 0.723816 0.29557 0.043602 
H 0.61129 0.34803 0.476234 
H 0.671349 0.408089 0.476234 
H 0.742645 0.276733 0.0208359 
H 0.745346 0.314461 0.0637512 
H 0.704926 0.274033 0.0637512 
C 0.945816 0.0736008 0.247566 
N 0.9562 0.112366 0.259148 
N 0.907021 0.0631866 0.259148 
C 0.921974 0.127327 0.279205 
C 0.892059 0.0974045 0.279205 
C 0.973831 0.0455551 0.224686 
H 0.861305 0.0980453 0.292015 
H 0.921364 0.158073 0.292015 
H 0.969315 0.0500641 0.190247 
H 0.0070343 0.052803 0.233131 
H 0.966614 0.0123444 0.233131 
C 0.528259 0.192787 0.32756 
N 0.508202 0.20916 0.360306 
N 0.508202 0.160011 0.311157 
C 0.973427 0.185349 0.364914 
C 0.973427 0.155434 0.334961 
C 0.567917 0.208969 0.311371 
H 0.951248 0.131317 0.328972 
H 0.951248 0.191338 0.389023 
H 0.561501 0.233299 0.28701 
H 0.586288 0.223198 0.33757 
H 0.586288 0.18277 0.297119 
C 0.741814 0.446175 0.0741348 
N 0.758217 0.459175 0.110321 
N 0.758217 0.410027 0.061142 
C 0.786598 0.429497 0.120796 
C 0.786598 0.399551 0.0908432 
C 0.709465 0.469063 0.0512466 
H 0.804726 0.371689 0.0886002 
H 0.804726 0.431709 0.148651 
H 0.677856 0.458405 0.0619354 
H 0.712875 0.503372 0.0573883 
H 0.712875 0.462921 0.0169678 
C 0.573204 0.446175 0.242744 
N 0.560211 0.410027 0.259148 
N 0.60939 0.459175 0.259148 
C 0.589912 0.399551 0.287529 
C 0.619865 0.429497 0.287529 
C 0.550316 0.469063 0.210396 
H 0.647728 0.431709 0.305656 
H 0.587669 0.371689 0.305656 
H 0.561005 0.458405 0.178787 
H 0.516006 0.462921 0.213806 
H 0.556457 0.503372 0.213806 
C 0.823219 0.196159 0.0255356 
N 0.810226 0.160011 0.00913239 
N 0.859375 0.20916 0.00913239 
C 0.839897 0.149536 0.480751 
C 0.86985 0.179482 0.480751 