816
Atoms. Timestep: 0
Zn 2.55671 -1.80769 9.39355
Zn -2.5564 -9.03869 21.9183
Zn -2.5564 12.6545 9.39355
Zn -7.66951 5.42355 21.9183
Zn 17.8964 -1.80769 9.39355
Zn 12.7833 -9.03869 21.9183
Zn 12.7833 12.6545 9.39355
Zn 7.67014 5.42355 21.9183
Zn 2.55671 9.03893 3.13118
Zn -2.5564 1.80793 15.6559
Zn -2.5564 23.5012 3.13118
Zn -7.66951 16.2702 15.6559
Zn 17.8964 9.03893 3.13118
Zn 12.7833 1.80793 15.6559
Zn 12.7833 23.5012 3.13118
Zn 7.67014 16.2702 15.6559
Zn 7.6699 5.42337 3.13118
Zn 2.55679 -1.80763 15.6559
Zn 2.55679 19.8856 3.13118
Zn -2.55632 12.6546 15.6559
Zn 23.0096 5.42337 3.13118
Zn 17.8964 -1.80763 15.6559
Zn 17.8964 19.8856 3.13118
Zn 12.7833 12.6546 15.6559
Zn -2.55648 7.23118 6.26237
Zn -7.66959 0.0001774 18.7871
Zn -7.66959 21.6934 6.26237
Zn -12.7827 14.4624 18.7871
Zn 12.7832 7.23118 6.26237
Zn 7.67006 0.0001774 18.7871
Zn 7.67006 21.6934 6.26237
Zn 2.55695 14.4624 18.7871
Zn -2.55648 1.80787 9.39355
Zn -7.66959 -5.42313 21.9183
Zn -7.66959 16.2701 9.39355
Zn -12.7827 9.03911 21.9183
Zn 12.7832 1.80787 9.39355
Zn 7.67006 -5.42313 21.9183
Zn 7.67006 16.2701 9.39355
Zn 2.55695 9.03911 21.9183
Zn 7.6699 5.89e-05 6.26237
Zn 2.55679 -7.23094 18.7871
Zn 2.55679 14.4623 6.26237
Zn -2.55632 7.2313 18.7871
Zn 23.0096 5.89e-05 6.26237
Zn 17.8964 -7.23094 18.7871
Zn 17.8964 14.4623 6.26237
Zn 12.7833 7.2313 18.7871
C -2.19814 10.0808 7.61277
N -2.81771 8.89016 7.39241
N -2.84179 10.8422 8.53756
C -3.91692 8.90002 8.22643
C -3.93177 10.0892 8.92418
H -1.28998 10.3893 7.10632
H -4.63777 10.4496 9.66417
H -4.60809 8.0653 8.26542
C -7.31125 2.84977 20.1375
N -7.93083 1.65916 19.9172
N -7.9549 3.6112 21.0623
C -9.03003 1.66902 20.7512
C -9.04488 2.85821 21.4489
H -6.40309 3.1583 19.6311
H -9.75088 3.2186 22.1889
H -9.7212 0.834294 20.7902
C 2.91497 -4.38147 7.61277
N -7.93083 23.3524 7.39241
N 2.27132 -3.62003 8.53756
C -9.03003 23.3623 8.22643
C 1.18134 -4.37303 8.92418
H 3.82313 -4.07293 7.10632
H 0.475342 -4.01264 9.66417
H -9.7212 22.5275 8.26542
C -2.19814 -11.6125 20.1375
N -13.0439 16.1214 19.9172
N -2.84179 -10.851 21.0623
C -14.1431 16.1313 20.7512
C -3.93177 -11.604 21.4489
H -1.28998 -11.3039 19.6311
H -4.63777 -11.2436 22.1889
H -14.8343 15.2965 20.7902
C 13.1415 10.0808 7.61277
N 12.5219 8.89016 7.39241
N 12.4979 10.8422 8.53756
C 11.4227 8.90002 8.22643
C 11.4079 10.0892 8.92418
H 14.0497 10.3893 7.10632
H 10.7019 10.4496 9.66417
H 10.7316 8.0653 8.26542
C 8.0284 2.84977 20.1375
N 7.40882 1.65916 19.9172
N 7.38475 3.6112 21.0623
C 6.30962 1.66902 20.7512
C 6.29477 2.85821 21.4489
H 8.93656 3.1583 19.6311
H 5.58877 3.2186 22.1889
H 5.61845 0.834294 20.7902
C 18.2546 -4.38147 7.61277
N 7.40882 23.3524 7.39241
N 17.611 -3.62003 8.53756
C 6.30962 23.3623 8.22643
C 16.521 -4.37303 8.92418
H 19.1628 -4.07293 7.10632
H 15.815 -4.01264 9.66417
H 5.61845 22.5275 8.26542
C 13.1415 -11.6125 20.1375
N 2.29571 16.1214 19.9172
N 12.4979 -10.851 21.0623
C 1.19651 16.1313 20.7512
C 11.4079 -11.604 21.4489
H 14.0497 -11.3039 19.6311
H 10.7019 -11.2436 22.1889
H 0.50534 15.2965 20.7902
C 0.006779 8.52476 4.90968
N -0.905118 7.54139 5.13481
N 0.943462 8.1689 3.98985
C -0.52225 6.50363 4.30958
C 0.603578 6.88617 3.61221
H -0.0107489 9.48747 5.40867
H 1.18298 6.3379 2.87777
H -1.07442 5.57109 4.27614
C -5.10633 1.29376 17.4344
N -6.01823 0.310388 17.6595
N -4.16965 0.937902 16.5146
C -5.63536 -0.72737 16.8343
C -4.50953 -0.344831 16.1369
H -5.12386 2.25647 17.9334
H -3.93013 -0.893103 15.4025
H -6.18753 -1.65991 16.8009
C -5.10633 22.987 4.90968
N -6.01823 22.0036 5.13481
N -4.16965 22.6311 3.98985
C -5.63536 20.9659 4.30958
C -4.50953 21.3484 3.61221
H -5.12386 23.9497 5.40867
H -3.93013 20.8001 2.87777
H -6.18753 20.0333 4.27614
C -10.2194 15.756 17.4344
N -11.1313 14.7726 17.6595
N -9.28276 15.4001 16.5146
C -10.7485 13.7349 16.8343
C -9.62264 14.1174 16.1369
H -10.237 16.7187 17.9334
H -9.04324 13.5691 15.4025
H -11.3006 12.8023 16.8009
C 15.3464 8.52476 4.90968
N 14.4345 7.54139 5.13481
N 16.2831 8.1689 3.98985
C 14.8172 6.50363 4.30958
C 15.9432 6.88617 3.61221
H 15.3289 9.48747 5.40867
H 16.5226 6.3379 2.87777
H 14.2652 5.57109 4.27614
C 10.2333 1.29376 17.4344
N 9.32142 0.310388 17.6595
N 11.17 0.937902 16.5146
C 9.70405 -0.72737 16.8343
C 10.8301 -0.344831 16.1369
H 10.2158 2.25647 17.9334
H 11.4095 -0.893103 15.4025
H 9.15211 -1.65991 16.8009
C 10.2333 22.987 4.90968
N 9.32142 22.0036 5.13481
N 11.17 22.6311 3.98985
C 9.70405 20.9659 4.30958
C 10.8301 21.3484 3.61221
H 10.2158 23.9497 5.40867
H 11.4095 20.8001 2.87777
H 9.15212 20.0333 4.27614
C 5.12021 15.756 17.4344
N 4.20831 14.7726 17.6595
N 6.05689 15.4001 16.5146
C 4.59094 13.7349 16.8343
C 5.71701 14.1174 16.1369
H 5.10268 16.7187 17.9334
H 6.29641 13.5691 15.4025
H 4.03901 12.8023 16.8009
C 5.10471 -1.28837 7.61525
N 6.05065 -0.328642 7.4314
N 4.20336 -0.957314 8.57846
C 5.72863 0.666825 8.33116
C 4.60322 0.283783 9.02987
H 5.07243 -2.21646 7.05434
H 4.06247 0.805386 9.81171
H 6.31855 1.57291 8.41104
C -0.0084057 -8.51937 20.14
N 0.937542 -7.55964 19.9561
N -0.909749 -8.18832 21.1032
C 0.615517 -6.56418 20.8559
C -0.509888 -6.94722 21.5546
H -0.0406814 -9.44746 19.5791
H -1.05064 -6.42562 22.3364
H 1.20544 -5.65809 20.9358
C -0.0084052 13.1739 7.61525
N 0.937543 14.1336 7.4314
N -0.909749 13.5049 8.57846
C 0.615516 15.1291 8.33116
C -0.509888 14.746 9.02987
H -0.0406809 12.2458 7.05434
H -1.05064 15.2676 9.81171
H 1.20544 16.0351 8.41104
C -5.12152 5.94287 20.14
N -4.17557 6.9026 19.9561
N -6.02286 6.27392 21.1032
C -4.49759 7.89806 20.8559
C -5.623 7.51502 21.5546
H -5.15379 5.01478 19.5791
H -6.16375 8.03662 22.3364
H -3.90767 8.80415 20.9358
C 20.4444 -1.28837 7.61525
N 21.3903 -0.328642 7.4314
N 19.543 -0.957314 8.57846
C 21.0683 0.666825 8.33116
C 19.9429 0.283783 9.02987
H 20.4121 -2.21646 7.05434
H 19.4021 0.805386 9.81171
H 21.6582 1.57291 8.41104
C 15.3312 -8.51937 20.14
N 16.2772 -7.55964 19.9561
N 14.4299 -8.18832 21.1032
C 15.9552 -6.56418 20.8559
C 14.8298 -6.94722 21.5546
H 15.299 -9.44746 19.5791
H 14.289 -6.42562 22.3364
H 16.5451 -5.65809 20.9358
C 15.3312 13.1739 7.61525
N 16.2772 14.1336 7.4314
N 14.4299 13.5049 8.57846
C 15.9552 15.1291 8.33116
C 14.8298 14.746 9.02987
H 15.299 12.2458 7.05434
H 14.289 15.2676 9.81171
H 16.5451 16.0351 8.41104
C 10.2181 5.94287 20.14
N 11.1641 6.9026 19.9561
N 9.31679 6.27392 21.1032
C 10.8421 7.89806 20.8559
C 9.71665 7.51502 21.5546
H 10.1859 5.01478 19.5791
H 9.1759 8.03662 22.3364
H 11.432 8.80415 20.9358
C -2.91638 26.0758 4.91044
N 7.89692 -1.63549 5.0918
N -2.30592 25.338 3.94475
C 8.93948 -1.60493 4.18804
C -1.27265 26.1309 3.48933
H -3.7776 25.734 5.4746
H -0.603351 25.7964 2.70462
H 9.59495 -0.744897 4.10528
C -8.02949 18.8448 17.4352
N 2.78381 -8.8665 17.6165
N -7.41903 18.1069 16.4695
C 3.82637 -8.83593 16.7128
C -6.38576 18.8999 16.0141
H -8.89072 18.503 17.9993
H -5.71646 18.5654 15.2294
H 4.48184 -7.9759 16.63
C 2.19673 11.6136 4.91044
N 2.78381 12.8267 5.0918
N 2.80719 10.8757 3.94475
C 3.82637 12.8573 4.18804
C 3.84046 11.6687 3.48933
H 1.33551 11.2718 5.4746
H 4.50976 11.3342 2.70462
H 4.48184 13.7173 4.10528
C -2.91638 4.38257 17.4352
N -2.32931 5.59574 17.6165
N -2.30592 3.64471 16.4695
C -1.28674 5.62631 16.7128
C -1.27265 4.43769 16.0141
H -3.77761 4.04078 17.9993
H -0.603351 4.10319 15.2294
H -0.631274 6.48634 16.63
C 12.4233 26.0758 4.91044
N 23.2366 -1.63549 5.0918
N 13.0337 25.338 3.94475
C 24.2791 -1.60493 4.18804
C 14.067 26.1309 3.48933
H 11.562 25.734 5.4746
H 14.7363 25.7964 2.70462
H 24.9346 -0.744897 4.10528
C 7.31016 18.8448 17.4352
N 18.1235 -8.8665 17.6165
N 7.92062 18.1069 16.4695
C 19.166 -8.83593 16.7128
C 8.95389 18.8999 16.0141
H 6.44894 18.503 17.9993
H 9.62319 18.5654 15.2294
H 19.8215 -7.9759 16.63
C 17.5364 11.6136 4.91044
N 18.1235 12.8267 5.0918
N 18.1468 10.8757 3.94475
C 19.166 12.8573 4.18804
C 19.1801 11.6687 3.48933
H 16.6752 11.2718 5.4746
H 19.8494 11.3342 2.70462
H 19.8215 13.7173 4.10528
C 12.4233 4.38257 17.4352
N 13.0103 5.59574 17.6165
N 13.0337 3.64471 16.4695
C 14.0529 5.62631 16.7128
C 14.067 4.43769 16.0141
H 11.562 4.04078 17.9993
H 14.7363 4.10319 15.2294
H 14.7084 6.48634 16.63
C 2.19424 -1.55702 12.5129
N 2.81584 -1.9586 13.6542
N 2.83931 -1.97447 11.3911
C 3.91819 -2.67114 13.2284
C 3.93257 -2.68121 11.8499
H 1.28344 -0.968244 12.4991
H 4.64046 -3.13885 11.1676
H 4.61151 -3.11894 13.9317
C -2.91887 -8.78802 25.0376
N 7.92895 5.2724 1.12947
N -2.2738 -9.20547 23.9158
C 9.0313 4.55986 0.703675
C -1.18054 -9.91221 24.3747
H -3.82967 -8.19925 25.0239
H -0.472652 -10.3699 23.6924
H 9.72462 4.11206 1.40697
C -2.91887 12.9052 12.5129
N -2.29727 12.5036 13.6542
N -2.2738 12.4878 11.3911
C -1.19492 11.7911 13.2284
C -1.18054 11.781 11.8499
H -3.82967 13.494 12.4991
H -0.472653 11.3234 11.1676
H -0.5016 11.3433 13.9317
C -8.03198 5.67422 25.0376
N 2.81584 19.7346 1.12947
N -7.38691 5.25677 23.9158
C 3.91819 19.0221 0.703675
C -6.29365 4.55003 24.3747
H -8.94279 6.26299 25.0239
H -5.58576 4.09239 23.6924
H 4.61151 18.5743 1.40697
C 17.5339 -1.55702 12.5129
N 18.1555 -1.9586 13.6542
N 18.179 -1.97447 11.3911
C 19.2578 -2.67114 13.2284
C 19.2722 -2.68121 11.8499
H 16.6231 -0.968244 12.4991
H 19.9801 -3.13885 11.1676
H 19.9512 -3.11894 13.9317
C 12.4208 -8.78802 25.0376
N 23.2686 5.2724 1.12947
N 13.0659 -9.20547 23.9158
C 24.3709 4.55986 0.703675
C 14.1591 -9.91221 24.3747
H 11.51 -8.19925 25.0239
H 14.867 -10.3699 23.6924
H 25.0643 4.11206 1.40697
C 12.4208 12.9052 12.5129
N 13.0424 12.5036 13.6542
N 13.0659 12.4878 11.3911
C 14.1447 11.7911 13.2284
C 14.1591 11.781 11.8499
H 11.51 13.494 12.4991
H 14.867 11.3234 11.1676
H 14.8381 11.3433 13.9317
C 7.30767 5.67422 25.0376
N 18.1555 19.7346 1.12947
N 7.95274 5.25677 23.9158
C 19.2578 19.0221 0.703675
C 9.046 4.55003 24.3747
H 6.39686 6.26299 25.0239
H 9.75389 4.09239 23.6924
H 19.9512 18.5743 1.40697
C 10.2189 5.94209 4.90795
N 11.1416 6.91857 5.12009
N 9.29252 6.29139 3.97533
C 10.7771 7.94435 4.27212
C 9.6511 7.56247 3.57476
H 10.2214 4.98937 5.42606
H 9.0827 8.10353 2.82617
H 11.3413 8.86961 4.22415
C 5.10577 -1.28891 17.4327
N 6.02849 -0.312435 17.6448
N 4.17941 -0.939609 16.5001
C 5.66403 0.713347 16.7969
C 4.53799 0.331466 16.0995
H 5.10831 -2.24163 17.9508
H 3.96959 0.872528 15.3509
H 6.22817 1.63861 16.7489
C 5.10577 20.4043 4.90795
N 6.02849 21.3808 5.12009
N 4.17941 20.7536 3.97533
C 5.66403 22.4066 4.27212
C 4.53799 22.0247 3.57476
H 5.10832 19.4516 5.42606
H 3.96959 22.5658 2.82617
H 6.22817 23.3318 4.22415
C -0.0073438 13.1733 17.4327
N 0.915379 14.1498 17.6448
N -0.9337 13.5226 16.5001
C 0.550917 15.1756 16.7969
C -0.575124 14.7937 16.0995
H -0.004796 12.2206 17.9508
H -1.14352 15.3348 15.3509
H 1.11506 16.1008 16.7489
C 25.5585 5.94209 4.90795
N -4.19805 6.91857 5.12009
N 24.6322 6.29139 3.97533
C -4.56251 7.94435 4.27212
C 24.9907 7.56247 3.57476
H 25.5611 4.98937 5.42606
H 24.4223 8.10353 2.82617
H -3.99837 8.86961 4.22415
C 20.4454 -1.28891 17.4327
N -9.31116 -0.312435 17.6448
N 19.5191 -0.939609 16.5001
C -9.67562 0.713347 16.7969
C 19.8776 0.331466 16.0995
H 20.448 -2.24163 17.9508
H 19.3092 0.872528 15.3509
H -9.11148 1.63861 16.7489
C 20.4454 20.4043 4.90795
N -9.31116 21.3808 5.12009
N 19.5191 20.7536 3.97533
C -9.67562 22.4066 4.27212
C 19.8776 22.0247 3.57476
H 20.448 19.4516 5.42606
H 19.3092 22.5658 2.82617
H -9.11148 23.3318 4.22415
C 15.3323 13.1733 17.4327
N -14.4243 14.1498 17.6448
N 14.406 13.5226 16.5001
C -14.7887 15.1756 16.7969
C 14.7645 14.7937 16.0995
H 15.3349 12.2206 17.9508
H 14.1961 15.3348 15.3509
H -14.2246 16.1008 16.7489
C 2.91702 8.78715 0.011849
N -7.90076 -5.23068 23.92
N 2.30215 9.24793 1.13406
C -8.95071 -4.44311 24.3458
C 1.26116 10.029 0.675009
H 3.78451 8.13615 0.025609
H 0.587083 10.5352 1.35709
H -9.61105 -3.94764 23.6425
C -2.19609 1.55615 12.5366
N -2.78765 2.00032 11.3953
N -2.81096 2.01693 13.6588
C -3.8376 2.78789 11.8211
C -3.85195 2.79804 13.1997
H -1.3286 0.905145 12.5503
H -4.52603 3.30415 13.8818
H -4.49794 3.28336 11.1178
C -2.19609 23.2494 0.011849
N -13.0139 9.23156 23.92
N -2.81096 23.7102 1.13406
C -14.0638 10.0191 24.3458
C -3.85195 24.4913 0.675009
H -1.3286 22.5984 0.025609
H -4.52603 24.9974 1.35709
H -14.7242 10.5146 23.6425
C -7.3092 16.0184 12.5366
N -7.90076 16.4626 11.3953
N -7.92407 16.4792 13.6588
C -8.95071 17.2501 11.8211
C -8.96507 17.2603 13.1997
H -6.44171 15.3674 12.5503
H -9.63914 17.7664 13.8818
H -9.61106 17.7456 11.1178
C 18.2567 8.78715 0.011849
N 7.43889 -5.23068 23.92
N 17.6418 9.24793 1.13406
C 6.38894 -4.44311 24.3458
C 16.6008 10.029 0.675009
H 19.1242 8.13615 0.025609
H 15.9267 10.5352 1.35709
H 5.7286 -3.94764 23.6425
C 13.1436 1.55615 12.5366
N 12.552 2.00032 11.3953
N 12.5287 2.01693 13.6588
C 11.502 2.78789 11.8211
C 11.4877 2.79804 13.1997
H 14.011 0.905145 12.5503
H 10.8136 3.30415 13.8818
H 10.8417 3.28336 11.1178
C 13.1436 23.2494 0.011849
N 2.32578 9.23156 23.92
N 12.5287 23.7102 1.13406
C 1.27582 10.0191 24.3458
C 11.4877 24.4913 0.675009
H 14.0111 22.5984 0.025609
H 10.8136 24.9974 1.35709
H 0.615484 10.5146 23.6425
C 8.03045 16.0184 12.5366
N 7.43889 16.4626 11.3953
N 7.41558 16.4792 13.6588
C 6.38894 17.2501 11.8211
C 6.37458 17.2603 13.1997
H 8.89794 15.3674 12.5503
H 5.70051 17.7664 13.8818
H 5.7286 17.7456 11.1178
C 8.02486 2.85025 4.91312
N 7.4341 1.6394 5.09773
N 7.41245 3.59021 3.95029
C 6.38747 1.61212 4.19912
C 6.37395 2.80056 3.50022
H 8.89018 3.1892 5.47288
H 5.70154 3.13754 2.71895
H 5.72849 0.754672 4.12019
C 2.91175 -4.38075 17.4379
N 2.32099 -5.5916 17.6225
N 2.29934 -3.64079 16.475
C 1.27436 -5.61888 16.7239
C 1.26084 -4.43044 16.025
H 3.77707 -4.0418 17.9976
H 0.588428 -4.09346 15.2437
H 0.615382 -6.47633 16.6449
C 2.91175 17.3125 4.91312
N 2.32099 16.1016 5.09773
N 2.29934 18.0525 3.95029
C 1.27436 16.0744 4.19912
C 1.26084 17.2628 3.50022
H 3.77707 17.6514 5.47288
H 0.588429 17.5998 2.71895
H 0.615382 15.2169 4.12019
C -2.20136 10.0815 17.4379
N -2.79212 8.87064 17.6225
N -2.81377 10.8215 16.475
C -3.83875 8.84336 16.7239
C -3.85228 10.0318 16.025
H -1.33604 10.4204 17.9976
H -4.52468 10.3688 15.2437
H -4.49773 7.98591 16.6449
C 23.3645 2.85025 4.91312
N 22.7738 1.6394 5.09773
N 22.7521 3.59021 3.95029
C 21.7271 1.61212 4.19912
C 21.7136 2.80056 3.50022
H 24.2298 3.1892 5.47288
H 21.0412 3.13754 2.71895
H 21.0681 0.754672 4.12019
C 18.2514 -4.38075 17.4379
N 17.6606 -5.5916 17.6225
N 17.639 -3.64079 16.475
C 16.614 -5.61888 16.7239
C 16.6005 -4.43044 16.025
H 19.1167 -4.0418 17.9976
H 15.9281 -4.09346 15.2437
H 15.955 -6.47633 16.6449
C 18.2514 17.3125 4.91312
N 17.6606 16.1016 5.09773
N 17.639 18.0525 3.95029
C 16.614 16.0744 4.19912
C 16.6005 17.2628 3.50022
H 19.1167 17.6514 5.47288
H 15.9281 17.5998 2.71895
H 15.955 15.2169 4.12019
C 13.1383 10.0815 17.4379
N 12.5475 8.87064 17.6225
N 12.5259 10.8215 16.475
C 11.5009 8.84336 16.7239
C 11.4874 10.0318 16.025
H 14.0036 10.4204 17.9976
H 10.815 10.3688 15.2437
H 10.8419 7.98591 16.6449
C 0.0120606 -0.0035415 9.83368
N -0.935776 0.632875 9.09446
N 0.911911 -0.673745 9.06541
C -0.616135 0.347996 7.78267
C 0.509269 -0.448308 7.76489
H 0.0465899 0.021462 10.9175
H 1.04863 -0.866944 6.92247
H -1.20795 0.729194 6.95802
C -5.10105 -7.23454 22.3584
N -6.04889 -6.59813 21.6192
N -4.2012 -7.90475 21.5901
C -5.72925 -6.88301 20.3074
C -4.60384 -7.67931 20.2896
H -5.06652 -7.20954 23.4422
H -4.06448 -8.09795 19.4472
H -6.32106 -6.50181 19.4828
C -5.10105 14.4587 9.83368
N -6.04889 15.0951 9.09446
N -4.2012 13.7885 9.06541
C -5.72925 14.8102 7.78267
C -4.60384 14.0139 7.76489
H -5.06652 14.4837 10.9175
H -4.06448 13.5953 6.92247
H -6.32106 15.1914 6.95802
C -10.2142 7.2277 22.3584
N -11.162 7.86411 21.6192
N -9.31431 6.55749 21.5901
C -10.8424 7.57923 20.3074
C -9.71695 6.78293 20.2896
H -10.1796 7.2527 23.4422
H -9.17759 6.36429 19.4472
H -11.4342 7.96043 19.4828
C 15.3517 -0.0035415 9.83368
N 14.4039 0.632875 9.09446
N 16.2516 -0.673745 9.06541
C 14.7235 0.347996 7.78267
C 15.8489 -0.448308 7.76489
H 15.3862 0.021462 10.9175
H 16.3883 -0.866944 6.92247
H 14.1317 0.729194 6.95802
C 10.2386 -7.23454 22.3584
N 9.29076 -6.59813 21.6192
N 11.1385 -7.90475 21.5901
C 9.6104 -6.88301 20.3074
C 10.7358 -7.67931 20.2896
H 10.2731 -7.20954 23.4422
H 11.2752 -8.09795 19.4472
H 9.01859 -6.50181 19.4828
C 10.2386 14.4587 9.83368
N 9.29076 15.0951 9.09446
N 11.1384 13.7885 9.06541
C 9.6104 14.8102 7.78267
C 10.7358 14.0139 7.76489
H 10.2731 14.4837 10.9175
H 11.2752 13.5953 6.92247
H 9.01859 15.1914 6.95802
C 5.12549 7.2277 22.3584
N 4.17765 7.86411 21.6192
N 6.02534 6.55749 21.5901
C 4.49729 7.57923 20.3074
C 5.6227 6.78293 20.2896
H 5.16002 7.2527 23.4422
H 6.16206 6.36429 19.4472
H 3.90548 7.96043 19.4828
C -2.91185 4.40162 7.60035
N -2.31048 3.62814 8.54368
N -2.28755 5.59758 7.42758
C -1.24356 4.37924 8.99317
C -1.22966 5.57861 8.31358
H -3.79361 4.09803 7.04593
H -0.54415 6.41471 8.39786
H -0.572845 4.00969 9.76106
C -8.02496 -2.82938 20.1251
N -7.42359 -3.60286 21.0684
N -7.40066 -1.63342 19.9523
C -6.35667 -2.85176 21.5179
C -6.34277 -1.65239 20.8383
H -8.90672 -3.13297 19.5707
H -5.65726 -0.816293 20.9226
H -5.68596 -3.22131 22.2858
C -8.02496 18.8639 7.60035
N -7.42359 18.0904 8.54368
N -7.40066 20.0598 7.42758
C -6.35667 18.8415 8.99317
C -6.34277 20.0408 8.31358
H -8.90672 18.5603 7.04593
H -5.65726 20.8769 8.39786
H -5.68596 18.4719 9.76106
C -13.1381 11.6329 20.1251
N -12.5367 10.8594 21.0684
N -12.5138 12.8288 19.9523
C -11.4698 11.6105 21.5179
C -11.4559 12.8098 20.8383
H -14.0198 11.3293 19.5707
H -10.7704 13.6459 20.9226
H -10.7991 11.2409 22.2858
C 12.4278 4.40162 7.60035
N 13.0292 3.62814 8.54368
N 13.0521 5.59758 7.42758
C 14.0961 4.37924 8.99317
C 14.11 5.57861 8.31358
H 11.546 4.09803 7.04593
H 14.7955 6.41471 8.39786
H 14.7668 4.00969 9.76106
C 7.31469 -2.82938 20.1251
N 7.91606 -3.60286 21.0684
N 7.93899 -1.63342 19.9523
C 8.98298 -2.85176 21.5179
C 8.99688 -1.65239 20.8383
H 6.43293 -3.13297 19.5707
H 9.68239 -0.816293 20.9226
H 9.65369 -3.22131 22.2858
C 7.31469 18.8639 7.60035
N 7.91606 18.0904 8.54368
N 7.93899 20.0598 7.42758
C 8.98298 18.8415 8.99317
C 8.99688 20.0408 8.31358
H 6.43293 18.5603 7.04593
H 9.68239 20.8769 8.39786
H 9.6537 18.4719 9.76106
C 2.20158 11.6329 20.1251
N 2.80295 10.8594 21.0684
N 2.82587 12.8288 19.9523
C 3.86987 11.6105 21.5179
C 3.88377 12.8098 20.8383
H 1.31982 11.3293 19.5707
H 4.56928 13.6459 20.9226
H 4.54058 11.2409 22.2858
C 5.10545 7.24019 2.6878
N 6.02161 6.56001 3.4276
N 4.1742 7.86626 3.45607
C 5.64771 6.76809 4.73939
C 4.52178 7.56402 4.75659
H 5.11633 7.2794 1.60401
H 3.94808 7.93382 5.59883
H 6.20522 6.33835 5.56404
C -0.0076609 0.0091877 15.2125
N 0.908496 -0.67099 15.9523
N -0.938914 0.635257 15.9808
C 0.534603 -0.462907 17.2641
C -0.591329 0.333023 17.2813
H 0.0032196 0.0484018 14.1287
H -1.16504 0.702814 18.1236
H 1.0921 -0.892654 18.0888
C -0.0076616 21.7024 2.6878
N 0.908496 21.0223 3.4276
N -0.938914 22.3285 3.45607
C 0.534603 21.2303 4.73939
C -0.591329 22.0263 4.75659
H 0.0032188 21.7416 1.60401
H -1.16504 22.3961 5.59883
H 1.0921 20.8006 5.56404
C -5.12077 14.4714 15.2125
N -4.20462 13.7913 15.9523
N -6.05202 15.0975 15.9808
C -4.57851 13.9993 17.2641
C -5.70444 14.7953 17.2813
H -5.10989 14.5106 14.1287
H -6.27815 15.1651 18.1236
H -4.02101 13.5696 18.0888
C 20.4451 7.24019 2.6878
N 21.3613 6.56001 3.4276
N 19.5138 7.86626 3.45607
C 20.9874 6.76809 4.73939
C 19.8614 7.56402 4.75659
H 20.456 7.2794 1.60401
H 19.2877 7.93382 5.59883
H 21.5449 6.33835 5.56404
C 15.332 0.0091877 15.2125
N 16.2481 -0.67099 15.9523
N 14.4007 0.635257 15.9808
C 15.8743 -0.462907 17.2641
C 14.7483 0.333023 17.2813
H 15.3429 0.0484018 14.1287
H 14.1746 0.702814 18.1236
H 16.4318 -0.892654 18.0888
C 15.332 21.7024 2.6878
N 16.2481 21.0223 3.4276
N 14.4007 22.3285 3.45607
C 15.8743 21.2303 4.73939
C 14.7483 22.0263 4.75659
H 15.3429 21.7416 1.60401
H 14.1746 22.3961 5.59883
H 16.4318 20.8006 5.56404
C 10.2189 14.4714 15.2125
N 11.135 13.7913 15.9523
N 9.28763 15.0975 15.9808
C 10.7611 13.9993 17.2641
C 9.63521 14.7953 17.2813
H 10.2298 14.5106 14.1287
H 9.0615 15.1651 18.1236
H 11.3186 13.5696 18.0888
C -5.10156 1.28601 7.61219
N 24.6373 0.32189 7.42185
N -4.19515 0.950928 8.56909
C 24.9687 -0.680536 8.31033
C -4.58547 -0.297536 9.00922
H -5.07712 2.21964 7.06122
H -4.03878 -0.823331 9.78438
H 24.3846 -1.59128 8.38314
C -10.2147 -5.94499 20.1369
N 19.5242 -6.90911 19.9466
N -9.30826 -6.28007 21.0938
C 19.8555 -7.91154 20.8351
C -9.69858 -7.52854 21.534
H -10.1902 -5.01136 19.586
H -9.15189 -8.05433 22.3091
H 19.2715 -8.82228 20.9079
C -10.2147 15.7483 7.61219
N 19.5242 14.7841 7.42185
N -9.30826 15.4132 8.56909
C 19.8555 13.7817 8.31033
C -9.69858 14.1647 9.00922
H -10.1902 16.6819 7.06122
H -9.15189 13.6389 9.78438
H 19.2715 12.871 8.38314
C -15.3278 8.51725 20.1369
N 14.4111 7.55313 19.9466
N -14.4214 8.18217 21.0938
C 14.7424 6.5507 20.8351
C -14.8117 6.9337 21.534
H -15.3033 9.45088 19.586
H -14.265 6.40791 22.3091
H 14.1584 5.63996 20.9079
C 10.2381 1.28601 7.61219
N 9.29767 0.32189 7.42185
N 11.1445 0.950928 8.56909
C 9.629 -0.680536 8.31033
C 10.7542 -0.297536 9.00922
H 10.2625 2.21964 7.06122
H 11.3009 -0.823331 9.78438
H 9.04495 -1.59128 8.38314
C 5.12497 -5.94499 20.1369
N 4.18456 -6.90911 19.9466
N 6.03139 -6.28007 21.0938
C 4.51589 -7.91154 20.8351
C 5.64107 -7.52854 21.534
H 5.14942 -5.01136 19.586
H 6.18776 -8.05433 22.3091
H 3.93184 -8.82228 20.9079
C 5.12497 15.7483 7.61219
N 4.18456 14.7841 7.42185
N 6.03139 15.4132 8.56909
C 4.51589 13.7817 8.31033
C 5.64107 14.1647 9.00922
H 5.14943 16.6819 7.06122
H 6.18776 13.6389 9.78438
H 3.93184 12.871 8.38314
C 0.0118637 8.51725 20.1369
N -0.92855 7.55313 19.9466
N 0.918279 8.18217 21.0938
C -0.597219 6.5507 20.8351
C 0.527958 6.9337 21.534
H 0.0363145 9.45088 19.586
H 1.07465 6.40791 22.3091
H -1.18127 5.63996 20.9079
816
Atoms. Timestep: 10
Zn 2.54811 -1.7802 9.41485
Zn -2.55626 -9.03646 21.8875
Zn -2.58948 12.629 9.37894
Zn -7.65455 5.40311 21.9113
Zn 17.8897 -1.80444 9.41621
Zn 12.7543 -9.01729 21.9129
Zn 12.7565 12.627 9.41677
Zn 7.685 5.40445 21.8893
Zn 2.53831 9.06914 3.10709
Zn -2.56547 1.82729 15.6486
Zn -2.55046 23.5146 3.16629
Zn -7.67534 16.2971 15.6551
Zn 17.8772 9.06014 3.13254
Zn 12.7726 1.81624 15.6478
Zn 12.7867 23.5104 3.12063
Zn 7.68352 16.2463 15.6366
Zn 7.69013 5.43753 3.10956
Zn 2.56156 -1.835 15.681
Zn 2.56968 19.8832 3.1578
Zn -2.54921 12.6649 15.649
Zn 23.0192 5.41908 3.1073
Zn 17.9087 -1.8253 15.6351
Zn 17.8767 19.9135 3.09632
Zn 12.7535 12.6292 15.6373
Zn -2.56469 7.20906 6.2675
Zn -7.68914 0.0130016 18.8057
Zn -7.66166 21.6753 6.28634
Zn -12.7851 14.4567 18.8065
Zn 12.8194 7.25673 6.2666
Zn 7.63314 -0.0049475 18.7863
Zn 7.68952 21.6948 6.26217
Zn 2.53947 14.4834 18.8189
Zn -2.54033 1.80445 9.4037
Zn -7.68841 -5.4204 21.9323
Zn -7.68319 16.2841 9.41373
Zn -12.7879 9.03565 21.9039
Zn 12.774 1.82807 9.41911
Zn 7.70051 -5.45212 21.9165
Zn 7.6517 16.2796 9.3818
Zn 2.59093 9.05376 21.9434
Zn 7.68263 -0.0219338 6.23595
Zn 2.58728 -7.22802 18.7957
Zn 2.57877 14.4697 6.23588
Zn -2.56879 7.20433 18.8069
Zn 23.0304 0.00490498 6.27004
Zn 17.8729 -7.23421 18.8055
Zn 17.8642 14.4876 6.24266
Zn 12.8025 7.22793 18.7601
C -2.20541 10.0512 7.65898
N -2.88395 8.90637 7.4349
N -2.89578 10.8236 8.56005
C -3.93485 8.96998 8.27379
C -3.97733 10.0649 8.90779
H -1.30597 10.3052 7.14666
H -4.70182 10.3228 9.5804
H -4.66623 8.2255 8.3607
C -7.31883 2.83312 20.1384
N -7.9981 1.6415 19.9291
N -7.97432 3.59337 21.0707
C -9.02189 1.7493 20.77
C -9.00517 2.82615 21.388
H -6.40879 3.14183 19.6826
H -9.73915 3.1388 22.0694
H -9.6992 0.944793 20.86
C 2.88372 -4.38691 7.58257
N -7.977 23.3587 7.37693
N 2.24354 -3.65877 8.5354
C -9.051 23.4393 8.20133
C 1.22583 -4.45719 8.90346
H 3.70234 -4.03103 7.00947
H 0.539864 -4.13996 9.61557
H -9.81127 22.7153 8.21934
C -2.22443 -11.5888 20.1174
N -13.0532 16.1374 19.9288
N -2.86938 -10.8856 21.1114
C -14.1479 16.221 20.7288
C -3.96151 -11.6684 21.4401
H -1.31182 -11.2452 19.6719
H -4.67724 -11.4203 22.1645
H -14.8145 15.4215 20.795
C 13.1212 10.0588 7.596
N 12.4428 8.84462 7.42404
N 12.4999 10.8327 8.52884
C 11.4398 8.92509 8.2547
C 11.4623 10.0376 8.8599
H 14.0105 10.3247 7.08234
H 10.7089 10.3278 9.54772
H 10.6788 8.16671 8.34931
C 8.02777 2.8204 20.1446
N 7.32124 1.66375 19.9284
N 7.38609 3.61211 21.0864
C 6.3219 1.74237 20.8169
C 6.32097 2.83993 21.4254
H 8.87256 3.12964 19.5648
H 5.64143 3.15797 22.1107
H 5.62884 0.970141 20.9687
C 18.2299 -4.35917 7.6237
N 7.39375 23.3533 7.40676
N 17.5678 -3.6494 8.58955
C 6.31774 23.4704 8.21958
C 16.5665 -4.41299 8.92595
H 19.0506 -4.01216 7.02786
H 15.868 -4.14506 9.6375
H 5.53526 22.7668 8.25816
C 13.1394 -11.6312 20.1368
N 2.24262 16.1147 19.9474
N 12.4856 -10.8753 21.0809
C 1.23214 16.1907 20.785
C 11.4557 -11.6254 21.3941
H 14.1127 -11.4507 19.7612
H 10.7387 -11.3014 22.0741
H 0.560154 15.4259 20.8348
C -0.0181599 8.49446 4.89059
N -0.865504 7.44217 5.15483
N 0.924584 8.10596 3.9722
C -0.408799 6.45238 4.37034
C 0.545109 6.87256 3.67075
H 0.0150158 9.49104 5.31635
H 1.03856 6.33441 2.91204
H -0.812813 5.50473 4.33986
C -5.16243 1.27519 17.4014
N -6.00868 0.225862 17.6095
N -4.18271 0.932895 16.5333
C -5.60587 -0.725923 16.7811
C -4.55466 -0.322675 16.1759
H -5.13128 2.06433 18.0546
H -4.02598 -0.897557 15.4915
H -6.093 -1.64469 16.7406
C -5.07858 22.9929 4.94968
N -5.95661 21.9347 5.11856
N -4.20248 22.6236 3.97846
C -5.55567 20.9485 4.26866
C -4.5503 21.3561 3.63077
H -5.02207 23.9085 5.50039
H -4.02793 20.7751 2.94118
H -5.98728 19.9997 4.15223
C -10.1797 15.7416 17.3683
N -11.1041 14.7241 17.5965
N -9.27952 15.39 16.4484
C -10.6945 13.7555 16.8161
C -9.6288 14.1251 16.1981
H -10.2442 16.7015 17.8266
H -9.08578 13.5477 15.5408
H -11.145 12.8222 16.7273
C 15.3187 8.53184 4.93088
N 14.4099 7.52685 5.07854
N 16.2815 8.15968 4.00338
C 14.8719 6.57352 4.2683
C 15.901 6.90643 3.65916
H 15.339 9.48457 5.44269
H 16.386 6.31396 2.92997
H 14.3719 5.66134 4.18644
C 10.2024 1.30278 17.4351
N 9.33586 0.267103 17.6419
N 11.1451 0.926315 16.4965
C 9.81966 -0.714846 16.831
C 10.8245 -0.336401 16.153
H 10.248 2.13851 18.0838
H 11.3282 -0.920598 15.4318
H 9.38559 -1.66269 16.7783
C 10.2205 23.0077 4.90907
N 9.31951 21.9816 5.07961
N 11.2001 22.6012 3.99858
C 9.76984 21.0268 4.30927
C 10.7765 21.3705 3.59567
H 10.1703 23.967 5.44609
H 11.2214 20.7425 2.84467
H 9.36266 20.0689 4.25207
C 5.10122 15.7873 17.4349
N 4.18087 14.8013 17.6243
N 6.04949 15.3763 16.4907
C 4.59239 13.7979 16.8282
C 5.608 14.1285 16.1388
H 5.07609 16.7497 17.9426
H 6.06317 13.4751 15.4296
H 4.10122 12.8579 16.7679
C 5.09321 -1.28261 7.65647
N 6.10265 -0.306184 7.48442
N 4.20396 -0.916296 8.62653
C 5.70607 0.638213 8.33958
C 4.6249 0.300383 8.95314
H 5.09575 -2.19343 7.13016
H 4.14607 0.91769 9.63989
H 6.21549 1.56465 8.46448
C 0.0491967 -8.50533 20.1248
N 0.953496 -7.50566 19.9772
N -0.906203 -8.23201 21.0842
C 0.554251 -6.58845 20.8423
C -0.499308 -6.9592 21.4719
H -0.0174392 -9.38288 19.5085
H -0.997783 -6.40642 22.1904
H 1.04177 -5.66877 21.0053
C 0.0666566 13.1999 7.60725
N 0.971679 14.1828 7.48508
N -0.88527 13.4571 8.55345
C 0.545213 15.0831 8.31756
C -0.498319 14.7051 8.95513
H 0.111415 12.3166 7.08299
H -0.967874 15.268 9.68363
H 1.0096 16.0122 8.47802
C -5.13381 5.97262 20.1254
N -4.17932 6.97096 19.9938
N -6.02889 6.32288 21.096
C -4.56842 7.89801 20.8677
C -5.59858 7.52533 21.5155
H -5.12401 4.99056 19.6362
H -6.08313 8.05489 22.2747
H -4.1018 8.83037 21.0094
C 20.4426 -1.2623 7.61967
N 21.3829 -0.269483 7.42812
N 19.5575 -0.909865 8.64271
C 21.0079 0.639381 8.37015
C 19.9934 0.273838 9.04591
H 20.4153 -2.20189 7.08711
H 19.542 0.850785 9.81162
H 21.5528 1.5207 8.53032
C 15.3597 -8.51848 20.1316
N 16.2379 -7.49071 19.9334
N 14.4393 -8.15258 21.1295
C 15.908 -6.58582 20.8497
C 14.9066 -6.96943 21.543
H 15.2739 -9.44354 19.5758
H 14.5129 -6.36528 22.293
H 16.3988 -5.67852 20.9421
C 15.3355 13.1612 7.68314
N 16.2524 14.1447 7.4794
N 14.4123 13.5835 8.62004
C 15.8628 15.1175 8.33958
C 14.8706 14.7877 9.04818
H 15.2121 12.2989 7.05784
H 14.4317 15.3336 9.81476
H 16.388 16.0122 8.41801
C 10.2818 5.96451 20.1724
N 11.1879 6.95291 19.975
N 9.33048 6.31263 21.1239
C 10.7927 7.88166 20.8681
C 9.72437 7.55641 21.4788
H 10.2842 4.98705 19.7047
H 9.22085 8.155 22.1944
H 11.3512 8.77828 20.9695
C -2.90084 26.0569 4.96947
N 7.90891 -1.59893 5.03206
N -2.29649 25.355 3.96696
C 8.94633 -1.63513 4.21585
C -1.29039 26.2243 3.5546
H -3.74315 25.7352 5.5108
H -0.617707 25.9373 2.81637
H 9.63145 -0.882708 4.14516
C -8.04711 18.8839 17.4456
N 2.86023 -8.87135 17.6277
N -7.37853 18.1777 16.4701
C 3.87348 -8.91544 16.7099
C -6.36404 18.9454 16.0487
H -8.82631 18.5405 18.1093
H -5.63929 18.7259 15.3047
H 4.54039 -8.1334 16.6192
C 2.18049 11.6333 4.9134
N 2.80825 12.8302 5.08861
N 2.85234 10.8793 3.92445
C 3.79054 12.758 4.19216
C 3.80073 11.7101 3.47908
H 1.33081 11.2959 5.44419
H 4.49158 11.5347 2.69138
H 4.46444 13.5759 4.09703
C -2.88778 4.37619 17.4704
N -2.31085 5.64777 17.5857
N -2.26619 3.65353 16.4917
C -1.28071 5.59524 16.7088
C -1.28799 4.50234 16.0712
H -3.74674 3.98297 17.989
H -0.635931 4.298 15.2915
H -0.600611 6.39892 16.6353
C 12.4268 26.0904 4.91861
N 23.3041 -1.64796 5.12857
N 13.1163 25.3365 3.97222
C 24.293 -1.6578 4.20893
C 14.0613 26.1996 3.5236
H 11.6347 25.6878 5.53291
H 14.7461 26.0266 2.72488
H 24.9509 -0.857228 4.13087
C 7.32817 18.8389 17.4321
N 18.2164 -8.83697 17.6194
N 7.96567 18.126 16.4565
C 19.2152 -8.88123 16.6796
C 8.95445 18.9702 15.9982
H 6.54395 18.4745 18.0498
H 9.57899 18.7686 15.1862
H 19.8813 -8.10569 16.4823
C 17.5332 11.6614 4.85846
N 18.1658 12.8346 5.04751
N 18.248 10.9066 3.94929
C 19.1182 12.8043 4.11832
C 19.1979 11.7231 3.52754
H 16.6613 11.3218 5.40799
H 19.9024 11.4913 2.76427
H 19.7611 13.6089 3.93947
C 12.4255 4.38668 17.3791
N 13.0951 5.56733 17.561
N 13.0425 3.63195 16.434
C 14.0563 5.55626 16.6957
C 14.0622 4.44771 16.0789
H 11.5859 4.07476 17.9677
H 14.7789 4.16641 15.3811
H 14.7718 6.32423 16.6061
C 2.18916 -1.50347 12.5374
N 2.84468 -1.92691 13.652
N 2.87279 -1.96311 11.4432
C 3.89059 -2.66138 13.1858
C 3.95071 -2.69581 11.9375
H 1.25244 -1.01273 12.6114