LAMMPS (31 Mar 2017)
#
units          metal
box tilt large
boundary       p p p
atom_style     full
bond_style     harmonic
angle_style    harmonic
dihedral_style fourier
improper_style none
pair_style     lj/cut/coul/long 12.0
kspace_style   ewald 1e-8
box tilt large
read_data      output.data
  triclinic box = (0 0 0) to (22.6273 19.5958 18.7943) with tilt (-11.3137 0 0)
WARNING: Triclinic box skew is large (../domain.cpp:196)
  2 by 2 by 1 MPI processor grid
  reading atoms ...
  537 atoms
  scanning bonds ...
  4 = max bonds/atom
  scanning angles ...
  12 = max angles/atom
  scanning dihedrals ...
  24 = max dihedrals/atom
  scanning impropers ...
  10 = max impropers/atom
  reading bonds ...
  624 bonds
  reading angles ...
  2234 angles
  reading dihedrals ...
  3820 dihedrals
  reading impropers ...
  2688 impropers
  4 = max # of 1-2 neighbors
  8 = max # of 1-3 neighbors
  24 = max # of 1-4 neighbors
  28 = max # of special neighbors
pair_modify    mix arithmetic shift yes tail no table 0
special_bonds  lj 0.0 0.0  0.00000 coul 0.0 0.0  0.00000
#   1     65.3700027  # Zn
#   2     12.0107002  # C1
#   3     14.0067396  # N1
#   4     12.0107002  # C2
#   5     12.0107002  # C3
#   6      1.0079401  # H2
#   7      1.0079401  # H3
#   8     12.0107002  # C4
#   9     12.0107002  # C5
#  10     12.0107002  # C6
#  11      1.0079401  # H1
#
variable    TK equal 300.0
variable    RandomSeed equal 123456789
#
dump        traj_all   all     custom 100  all.lammpstrj       element xs ys zs
dump_modify traj_all   element Zn C N C C H H C C C H  first yes sort id
dump        traj all xyz 100 traj.xyz
dump_modify traj element Zn C N C C H H C C C H sort id
#
velocity    all create ${TK} ${RandomSeed}
velocity    all create 300 ${RandomSeed}
velocity    all create 300 123456789
variable    dt     equal 0.0005
variable    tdamp  equal 100*${dt}
variable    tdamp  equal 100*0.0005
fix         2 all langevin ${TK} ${TK} ${tdamp} ${RandomSeed}
fix         2 all langevin 300 ${TK} ${tdamp} ${RandomSeed}
fix         2 all langevin 300 300 ${tdamp} ${RandomSeed}
fix         2 all langevin 300 300 0.05 ${RandomSeed}
fix         2 all langevin 300 300 0.05 123456789
fix         3 all nve
thermo      100
run         10000
Ewald initialization ...
WARNING: System is not charge neutral, net charge = 2.4762 (../kspace.cpp:302)
WARNING: Using polynomial approximation for long-range coulomb (../kspace.cpp:321)
  G vector (1/distance) = 0.309749
  estimated absolute RMS force accuracy = 1.55629e-07
  estimated relative force accuracy = 1.08079e-08
  KSpace vectors: actual max1d max3d = 1165 12 7812
                  kxmax kymax kzmax  = 9 12 7
Neighbor list info ...
  update every 1 steps, delay 10 steps, check yes
  max neighbors/atom: 2000, page size: 100000
  master list distance cutoff = 14
  ghost atom cutoff = 14
  binsize = 7, bins = 5 3 3
  1 neighbor lists, perpetual/occasional/extra = 1 0 0
  (1) pair lj/cut/coul/long, perpetual
      attributes: half, newton on
      pair build: half/bin/newton/tri
      stencil: half/bin/3d/newton/tri
      bin: standard
WARNING: Inconsistent image flags (../domain.cpp:785)
Per MPI rank memory allocation (min/avg/max) = 44.18 | 44.18 | 44.18 Mbytes
Step Temp E_pair E_mol TotEng Press 
       0          300     149.4056    124.30966    294.50029   -41937.139 
     100      402.572    100.52006    42.920323    171.33195    30592.266 
     200    311.81245    99.989683    32.949741    154.54286    9291.1053 
     300    302.35998    100.09825    30.805099    151.85189    8973.7831 
     400    302.90438    99.315261    31.938553    152.24007    13194.821 
     500    305.79304    99.400067     31.73967    152.32613    10622.951 
     600     310.0566    98.968473    31.008031    151.45829     11416.77 
     700    284.87014    98.964903    30.983675    149.68536    9869.4985 
     800    290.18801    99.204522    31.435358     150.7451    7784.7689 
     900    274.87093    99.023591    30.496903     148.5645    7832.6194 
    1000    288.51416    99.784155    30.736458    150.50987    12384.032 
    1100    304.77931     99.44782     30.28913    150.85311    9347.4585 
    1200     304.5352    99.192346    31.604786    151.89638    12183.296 
    1300    296.44357    99.173827    31.813685    151.52614    7870.4371 
    1400    299.86157    99.331583    32.064391    152.17141    9791.0578 
    1500    276.11335    99.041903     30.01287    148.18485    10034.926 
    1600    298.38732    99.239842    31.782768    151.69591    8677.8672 
    1700    299.98604    99.126063    31.409684    151.31981    7822.5152 
    1800    286.13048    98.826524    31.787285    150.43791    7714.8574 
    1900    289.60642    98.503511    30.945036    149.51348    9402.0331 
    2000    300.02408    98.519799    32.234687    151.54119    11524.063 
    2100    292.44431    98.784792    31.324899    150.37124    9616.1793 
    2200    278.49957     98.58995    32.275013    150.16037    10217.851 
    2300    306.59814    98.697857    32.061781    152.00181    8597.6345 
    2400    309.48517    98.616239    30.405533    150.46397    10738.169 
    2500    298.01146    98.633012    31.698604    150.97887    7375.1131 
    2600    302.80402    98.473256    31.728609    151.18117    6693.3592 
    2700    306.45549    98.614186    31.744634    151.59111    12408.645 
    2800    304.57909    98.728874    31.467863    151.29902    9998.4251 
    2900    302.33389    98.740164    32.546763    152.23366    8481.7613 
    3000    297.54562    98.472963    32.290558     151.3785    7193.8933 
    3100    292.67552    98.172739    30.547446    148.99775     9238.706 
    3200      295.654     98.91107    29.944581    149.33958    9918.9656 
    3300    292.33108    98.614063    29.893041    148.76081    10670.906 
    3400    291.12131    98.522387     31.12028    149.81255    8851.1466 
    3500    300.72464    98.627308    30.979409    150.44195    10775.959 
    3600    308.67916    98.402872    31.692806    151.48203    9585.5329 
    3700    279.87825    98.399919    31.013045    148.80389    10061.107 
    3800      309.563    98.212562    32.281966    151.94212    11082.248 
    3900    319.27399    99.127592    30.182708     151.4307    8495.4956 
    4000    303.57154    98.427891    32.355538    151.81591    12406.622 
    4100     298.6471    98.283216    31.149116    150.12363    10135.739 
    4200    292.40402    97.878197    31.479609    149.61656    8793.4473 
    4300    298.87026    98.185832    32.025803    150.91839    8527.3482 
    4400    303.05617    98.267409    31.758129    151.02231    8323.9286 
    4500    308.09315    98.547787     31.94305    151.83659    6876.7167 
    4600    296.76408    98.394099    31.482937    150.43787     6620.163 
    4700    292.00217    98.290681    31.022577    149.54417    12676.573 
    4800    288.11608    98.393501    31.747978    150.10315    10869.041 
    4900    303.33941    98.308398     31.60005    150.92485    9168.5618 
    5000    308.97957     98.77821    29.786308    149.97168    12467.942 
    5100    312.86392    98.369503    31.624346    151.67014    7905.8837 
    5200    306.57212    98.473764    30.815499    150.52963    6224.1447 
    5300     291.9744    98.176148    31.370975    149.77611    9951.6024 
    5400     310.0239    98.407618    30.762214    150.64935    11153.643 
    5500    306.43327    98.230167    31.128741    150.58966    11801.799 
    5600     289.7254    98.410443    32.018338    150.50195     10577.84 
    5700    286.31314    98.063653    32.188978    150.08939    6711.2991 
    5800    322.48456    98.745736    31.021758    152.11033     11836.79 
    5900     295.9798    98.400688    30.780184    149.68737    7291.8514 
    6000     308.5965     98.56682    31.539068    151.48651    8780.8114 
    6100    301.91048    98.073114    30.442031    149.43254    8160.8066 
    6200    290.95264    98.142681    31.250307    149.55119    8345.4952 
    6300    292.59646    98.398661    30.119776    148.79053    9272.1251 
    6400    311.28366    98.000908    31.857985    151.42569    8645.5796 
    6500     307.6847    98.438626    30.906476    150.66255    8312.8886 
    6600    291.87094    98.572653     31.68441    150.47889    7598.8109 
    6700    290.69706    98.308284    30.764149    149.21292    10390.275 
    6800    290.87828    98.038146    30.683417    148.87461    7808.2531 
    6900    310.16167    98.149078    31.462289    151.10043    9272.5691 
    7000    313.36732    98.334918    30.423852    150.46994    7781.5681 
    7100      290.417    97.945861    30.699281    148.76623    9097.2163 
    7200    295.97865    98.310926    31.609601    150.42695    10164.742 
    7300    294.02163    97.891691     30.83843    149.10095    7544.5149 
    7400    305.79798    98.341299    30.432262     149.9603    7362.0158 
    7500    301.22144    98.067426     31.76378    150.70086    7118.1396 
    7600    298.17167    97.910228    32.243983    150.81257    3577.1027 
    7700     310.3963    98.201024    29.630811    149.33716    9230.6199 
    7800    311.52195    98.418053    30.815657    150.81702    9709.7371 
    7900    312.09106    98.185506    30.840321    150.64857     5428.851 
    8000    302.08477     97.54849    31.671017    150.14898    6708.1252 
    8100    298.09275    97.722127    31.831145    150.20616    7385.5291 
    8200    306.81111    98.159959    30.610145    150.02703    9965.2287 
    8300    304.84276    98.297475    31.189009    150.60704    9245.4689 
    8400    292.06331     98.18474     30.94372    149.36361    9438.5706 
    8500    292.88776    98.497963    31.054113    149.84435    8123.7768 
    8600    296.94017    98.370076     30.82387    149.76698    9972.6018 
    8700    294.66052    98.121131    30.053555    148.58978    8137.2568 
    8800    307.99516    98.650032    30.922174    150.91117    10049.711 
    8900    305.82812    98.206438    32.486822    151.88208    7729.8158 
    9000    295.76722    97.924922    31.510387    149.92708    10338.655 
    9100    310.65717    98.454949    31.043235    151.02158    8905.7643 
    9200    299.02836    98.328467    32.391688    151.43787    10900.423 
    9300    294.89956    97.728862    32.716677    150.87719    5536.2475 
    9400    304.26473    97.877499    32.088191     151.0462    6429.5263 
    9500    313.55759    97.937445    32.408231    152.07002    8664.3995 
    9600    297.68237    98.052513    30.962021    149.63899    8648.7111 
    9700    306.75566     97.77479    30.720248    149.74812    3798.5255 
    9800     294.0225    98.009592    31.827524    150.20801    7760.2454 
    9900    334.66248    97.779657    31.431185    152.39741     3390.961 
   10000    307.47761    97.801771    31.981018    151.08589    3762.3294 
Loop time of 93.7975 on 4 procs for 10000 steps with 537 atoms

Performance: 9.211 ns/day, 2.605 hours/ns, 106.613 timesteps/s
94.6% CPU use with 4 MPI tasks x no OpenMP threads

MPI task timing breakdown:
Section |  min time  |  avg time  |  max time  |%varavg| %total
---------------------------------------------------------------
Pair    | 41.848     | 44.718     | 47.104     |  29.7 | 47.68
Bond    | 2.1921     | 2.4572     | 2.6782     |  12.1 |  2.62
Kspace  | 39.096     | 40.742     | 43.598     |  26.7 | 43.44
Neigh   | 1.5753     | 1.5776     | 1.5803     |   0.2 |  1.68
Comm    | 1.8355     | 3.7397     | 5.0291     |  60.5 |  3.99
Output  | 0.10193    | 0.10493    | 0.11383    |   1.6 |  0.11
Modify  | 0.18814    | 0.1928     | 0.20099    |   1.1 |  0.21
Other   |            | 0.2646     |            |       |  0.28

Nlocal:    134.25 ave 142 max 127 min
Histogram: 1 0 1 0 0 0 0 1 0 1
Nghost:    4882.75 ave 4907 max 4856 min
Histogram: 1 0 0 0 1 0 1 0 0 1
Neighs:    49761.2 ave 52569 max 47213 min
Histogram: 1 1 0 0 0 0 0 1 0 1

Total # of neighbors = 199045
Ave neighs/atom = 370.661
Ave special neighs/atom = 12.5698
Neighbor list builds = 241
Dangerous builds = 1
undump      traj_all
undump      traj
Total wall time: 0:01:33
