Created on 13  4 2017  0:11:19
  
         537  atoms
         624  bonds
        2234  angles
        3820  dihedrals
        2688  impropers
  
          11  atom types
          14  bond types
          24  angle types
          40  dihedral types
          24  improper types
  
   0.00000000       22.6273003      xlo xhi
   0.00000000       19.5958176      ylo yhi
   0.00000000       18.7943001      zlo zhi
  -11.3136511       0.00000000       0.00000000      xy xz yz
  
Masses
  
   1     65.3700027  # Zn  
   2     12.0107002  # C1  
   3     14.0067396  # N1  
   4     12.0107002  # C2  
   5     12.0107002  # C3  
   6      1.0079401  # H2  
   7      1.0079401  # H3  
   8     12.0107002  # C4  
   9     12.0107002  # C5  
  10     12.0107002  # C6  
  11      1.0079401  # H1  
  
Bond Coeffs
  
   1   3.72895980       1.98699999      # harmonic    # Zn  N1  
   2   21.1596794       1.33899999      # harmonic    # C1  N1  
   3   13.7451191       1.49199998      # harmonic    # C1  C3  
   4   17.7775993       1.37100005      # harmonic    # N1  C2  
   5   22.4604797       1.34599996      # harmonic    # C2  C2  
   6   15.9131193      0.929000020      # harmonic    # C2  H2  
   7   14.7423992      0.958999991      # harmonic    # C3  H3  
   8   21.1596794       1.33899999      # harmonic    # C4  N1  
   9   15.9131193      0.958999991      # harmonic    # C4  H2  
  10   21.1596794       1.33899999      # harmonic    # N1  C5  
  11   22.4604797       1.34599996      # harmonic    # C5  C5  
  12   22.4604797       1.34599996      # harmonic    # C5  C6  
  13   22.4604797       1.34599996      # harmonic    # C6  C6  
  14   15.9131193      0.929000020      # harmonic    # C6  H1  
  
Angle Coeffs
  
   1   0.455279976       109.470001      # harmonic   # N1  Zn  N1  
   2   3.03519988       112.169998      # harmonic    # N1  C1  N1  
   3   3.03519988       123.889999      # harmonic    # N1  C1  C3  
   4   2.16799998       127.500000      # harmonic    # Zn  N1  C1  
   5   1.51759994       128.000000      # harmonic    # Zn  N1  C2  
   6   3.03519988       105.239998      # harmonic    # C1  N1  C2  
   7   3.03519988       108.669998      # harmonic    # N1  C2  C2  
   8   2.16799998       125.660004      # harmonic    # N1  C2  H2  
   9   2.16799998       125.669998      # harmonic    # C2  C2  H2  
  10   2.16799998       109.440002      # harmonic    # C1  C3  H3  
  11   1.51759994       109.500000      # harmonic    # H3  C3  H3  
  12   3.03519988       112.169998      # harmonic    # N1  C4  N1  
  13   2.16799998       125.660004      # harmonic    # N1  C4  H2  
  14   2.16799998       127.500000      # harmonic    # Zn  N1  C4  
  15   3.03519988       105.239998      # harmonic    # C4  N1  C2  
  16   1.51759994       128.000000      # harmonic    # Zn  N1  C5  
  17   3.03519988       105.239998      # harmonic    # C4  N1  C5  
  18   3.03519988       108.669998      # harmonic    # N1  C5  C5  
  19   2.16799998       131.300003      # harmonic    # N1  C5  C6  
  20   2.16799998       120.000000      # harmonic    # C5  C5  C6  
  21   2.16799998       120.000000      # harmonic    # C5  C6  C6  
  22   2.16799998       120.000000      # harmonic    # C5  C6  H1  
  23   2.16799998       120.000000      # harmonic    # C6  C6  H1  
  24   2.16799998       120.000000      # harmonic    # C6  C6  C6  
  
Dihedral Coeffs
  
   1   1   4.33599995E-03           2   180.000000      # fourier            # Zn  N1  C1  N1  
   2   1   4.33599995E-03           2   180.000000      # fourier            # Zn  N1  C1  C3  
   3   1   4.33599995E-03           2   180.000000      # fourier            # Zn  N1  C2  C2  
   4   1   0.00000000               1   0.00000000      # fourier            # Zn  N1  C2  H2  
   5   1   4.33599995E-03           2   180.000000      # fourier            # Zn  N1  C4  N1  
   6   1   0.00000000               1   0.00000000      # fourier            # Zn  N1  C4  H2  
   7   1   4.33599995E-03           2   180.000000      # fourier            # Zn  N1  C5  C5  
   8   1   4.33599995E-03           2   180.000000      # fourier            # Zn  N1  C5  C6  
   9   1   7.54463952E-03           3   0.00000000      # fourier            # C1  N1  Zn  N1  
  10   1  0.208128005               2   180.000000      # fourier            # C1  N1  C2  C2  
  11   1  0.208128005               2   180.000000      # fourier            # C1  N1  C2  H2  
  12   1   7.54463952E-03           3   0.00000000      # fourier            # N1  Zn  N1  C4  
  13   1   7.54463952E-03           3   0.00000000      # fourier            # N1  Zn  N1  C2  
  14   1  0.208128005               2   180.000000      # fourier            # N1  C1  N1  C2  
  15   1   0.00000000               1   0.00000000      # fourier            # N1  C1  C3  H3  
  16   1  0.173439994               2   180.000000      # fourier            # N1  C2  C2  N1  
  17   1  0.173439994               2   180.000000      # fourier            # N1  C2  C2  H2  
  18   1   7.54463952E-03           3   0.00000000      # fourier            # N1  Zn  N1  C5  
  19   1  0.173439994               2   180.000000      # fourier            # C2  N1  C1  C3  
  20   1  0.173439994               2   180.000000      # fourier            # H2  C2  C2  H2  
  21   1  0.208128005               2   180.000000      # fourier            # C4  N1  C2  C2  
  22   1  0.208128005               2   180.000000      # fourier            # C4  N1  C2  H2  
  23   1  0.208128005               2   180.000000      # fourier            # N1  C4  N1  C2  
  24   1  0.173439994               2   180.000000      # fourier            # C2  N1  C4  H2  
  25   1  0.208128005               2   180.000000      # fourier            # C4  N1  C5  C5  
  26   1  0.208128005               2   180.000000      # fourier            # C4  N1  C5  C6  
  27   1  0.208128005               2   180.000000      # fourier            # N1  C4  N1  C5  
  28   1  0.173439994               2   180.000000      # fourier            # N1  C5  C5  N1  
  29   1  0.173439994               2   180.000000      # fourier            # N1  C5  C5  C6  
  30   1   0.00000000               1   0.00000000      # fourier            # N1  C5  C6  C6  
  31   1   0.00000000               1   0.00000000      # fourier            # N1  C5  C6  H1  
  32   1  0.173439994               2   180.000000      # fourier            # C5  N1  C4  H2  
  33   1  0.208128005               2   180.000000      # fourier            # C5  C5  C6  C6  
  34   1   0.00000000               1   0.00000000      # fourier            # C5  C5  C6  H1  
  35   1  0.208128005               2   180.000000      # fourier            # C5  C6  C6  C6  
  36   1   0.00000000               1   0.00000000      # fourier            # C5  C6  C6  H1  
  37   1  0.173439994               2   180.000000      # fourier            # C6  C5  C5  C6  
  38   1  0.208128005               2   180.000000      # fourier            # C6  C6  C6  C6  
  39   1   0.00000000               1   0.00000000      # fourier            # C6  C6  C6  H1  
  40   1   0.00000000               1   0.00000000      # fourier            # H1  C6  C6  H1  
  
Pair Coeffs
  
           1    3.41243180E-03   2.46199989      #  lj/cut                                    # Zn  Zn  
           2    2.89211166E-03   3.43099999      #  lj/cut                                    # C1  C1  
           3    1.89916790E-03   3.26099992      #  lj/cut                                    # N1  N1  
           4    2.89211166E-03   3.43099999      #  lj/cut                                    # C2  C2  
           5    2.89211166E-03   3.43099999      #  lj/cut                                    # C3  C3  
           6    1.20974390E-03   2.57100010      #  lj/cut                                    # H2  H2  
           7    1.20974390E-03   2.57100010      #  lj/cut                                    # H3  H3  
           8    2.89211166E-03   3.43099999      #  lj/cut                                    # C4  C4  
           9    2.89211166E-03   3.43099999      #  lj/cut                                    # C5  C5  
          10    2.89211166E-03   3.43099999      #  lj/cut                                    # C6  C6  
          11    1.20974390E-03   2.57100010      #  lj/cut                                    # H1  H1  
  
Atoms
  
    1   1   1  0.6918000     -2.8895445      8.1147890      7.0478625
    2   1   1  0.6918000     -2.8895445      8.1147890     16.4450130
    3   1   1  0.6918000     14.1663094     11.4464903      2.3492875
    4   1   1  0.6918000     14.1663094     11.4464903     11.7464371
    5   1   1  0.6918000      5.6883469     13.0261526      7.0478625
    6   1   1  0.6918000      5.6883469     13.0261526     16.4450130
    7   1   1  0.6918000     -2.8539844     17.9991112      7.0478625
    8   1   1  0.6918000     -2.8539844     17.9991112     16.4450130
    9   1   1  0.6918000     14.1307497      1.5621694      2.3492875
   10   1   1  0.6918000     14.1307497      1.5621694     11.7464371
   11   1   1  0.6918000      5.5886497      6.5354271      2.3492875
   12   1   1  0.6918000      5.5886497      6.5354271     11.7464371
   13   1   1  0.6918000      8.4240303     11.4464903      2.3492875
   14   1   1  0.6918000      8.4240303     11.4464903     11.7464371
   15   1   1  0.6918000     17.0017357      6.5354271      2.3492875
   16   1   1  0.6918000     17.0017357      6.5354271     11.7464371
   17   1   1  0.6918000      8.4599419      1.5621694      2.3492875
   18   1   1  0.6918000      8.4599419      1.5621694     11.7464371
   19   1   1  0.6918000      2.8171692     17.9991112      7.0478625
   20   1   1  0.6918000      2.8171692     17.9991112     16.4450130
   21   1   1  0.6918000     -5.7250848     13.0261526      7.0478625
   22   1   1  0.6918000     -5.7250848     13.0261526     16.4450130
   23   1   1  0.6918000      2.8527336      8.1147890      7.0478625
   24   1   1  0.6918000      2.8527336      8.1147890     16.4450130
   25   1   2  0.4291000     18.0437775      7.4394789      4.8498507
   26   1   3 -0.3879000     17.7388382      6.4158235      4.0080128
   27   1   3 -0.3879000     -3.7949331      7.0471797      5.8861237
   28   1   4 -0.0839000     18.3714809      5.3126321      4.5435715
   29   1   4 -0.0839000     19.0375290      5.6971569      5.6875300
   30   1   5 -0.4526000     -5.0611377      8.8379412      4.6579957
   31   1   6  0.1128000     19.6397266      5.1076617      6.3702054
   32   1   6  0.1128000     18.3039837      4.3363695      4.0759792
   33   1   7  0.1310000     -4.3073883      9.4133825      4.0255065
   34   1   7  0.1310000     16.5567703      8.8253832      4.1283164
   35   1   7  0.1310000     -5.1708908      9.3446112      5.6731911
   36   1   2  0.4291000     18.0437775      7.4394789     14.2470007
   37   1   3 -0.3879000     17.7388382      6.4158235     13.4051628
   38   1   3 -0.3879000     -3.7949331      7.0471797     15.2832737
   39   1   4 -0.0839000     18.3714809      5.3126321     13.9407215
   40   1   4 -0.0839000     19.0375290      5.6971569     15.0846796
   41   1   5 -0.4526000     -5.0611377      8.8379412     14.0551462
   42   1   6  0.1128000     19.6397266      5.1076617     15.7673559
   43   1   6  0.1128000     18.3039837      4.3363695     13.4731293
   44   1   7  0.1310000     -4.3073883      9.4133825     13.4226561
   45   1   7  0.1310000     16.5567703      8.8253832     13.5254669
   46   1   7  0.1310000     -5.1708908      9.3446112     15.0703411
   47   1   8  0.2567000     15.5205574     12.1400404     18.7538643
   48   1   3 -0.3879000     -6.4620733     13.1454563     18.1037388
   49   1   3 -0.3879000     15.0716982     12.5141001      1.1875488
   50   1   4 -0.0839000     -6.5060039     14.2175512      0.1773724
   51   1   4 -0.0839000     -7.1721115     13.8328772      1.3214742
   52   1   6  0.1128000     15.3797626     11.1480799     18.3386097
   53   1   6  0.1128000     -7.3984547     14.4024878      2.2160790
   54   1   6  0.1128000     -6.0627103     15.1737804     18.7161522
   55   1   8  0.2567000     15.3549404     12.2204742      9.2874575
   56   1   3 -0.3879000     -6.4620733     13.1454563      8.7065878
   57   1   3 -0.3879000     15.0716982     12.5141001     10.5846987
   58   1   4 -0.0839000     -6.2186961     14.0777645      9.6946821
   59   1   4 -0.0839000     -6.8848038     13.6930904     10.8386412
   60   1   6  0.1128000     14.9758072     11.3448277      8.7722607
   61   1   6  0.1128000     -6.9281845     14.1734476     11.8099585
   62   1   6  0.1128000     -5.5922661     14.9447393      9.5158758
   63   1   2  0.4291000      7.1199613     11.8967972      4.8498507
   64   1   3 -0.3879000      8.1592579     12.1443768      4.0080128
   65   1   3 -0.3879000      7.0654182     12.7758818      5.8861237
   66   1   4 -0.0839000      8.7981911     13.2439795      4.5435715
   67   1   4 -0.0839000      8.1322079     13.6285048      5.6875300
   68   1   5 -0.4526000      6.1477180     10.7841873      4.6579957
   69   1   6  0.1128000      8.3415718     14.4447975      6.3702054
   70   1   6  0.1128000      9.6774883     13.6735058      4.0759792
   71   1   7  0.1310000      5.2723088     11.1492767      4.0255065
   72   1   7  0.1310000      6.6633015      9.9163151      4.1283164
   73   1   7  0.1310000      5.7639360     10.4355431      5.6731911
   74   1   8  0.2567000      7.0227528     12.0337429     14.1443338
   75   1   3 -0.3879000      8.1592579     12.1443768     13.4051628
   76   1   3 -0.3879000      7.0654182     12.7758818     15.2832737
   77   1   9  0.0000000      8.9665604     13.0065670     14.1186676
   78   1   9  0.0000000      8.3005753     13.3909426     15.2626257
   79   1   6  0.1128000      6.1755252     11.4210749     13.8569822
   80   1  10 -0.0550000      8.9001875     14.2577677     16.1506348
   81   1  10 -0.0550000     10.2320967     13.4885683     13.8630047
   82   1  10 -0.0550000     10.1653786     14.7397690     15.8951149
   83   1  10 -0.0550000     10.8314781     14.3550949     14.7510138
   84   1  11  0.1128000      8.3492041     14.5757637     17.0965729
   85   1  11  0.1128000     10.7829065     13.1705732     12.9169226
   86   1  11  0.1128000     10.6614714     15.4566422     16.6295547
   87   1  11  0.1128000     11.8782673     14.7541218     14.5396576
   88   1   8  0.2567000     -3.1096210     19.3485355      4.5438581
   89   1   3 -0.3879000      7.9879584      0.9838872      4.0080128
   90   1   3 -0.3879000     -3.3258405     19.3169899      5.8861237
   91   1   4 -0.0839000      7.6134710      1.7764090      5.0739679
   92   1   4 -0.0839000      7.6133485      1.0072099      6.2179260
   93   1   6  0.1128000     -2.7988400     18.4860458      3.9641359
   94   1   6  0.1128000      7.3745332      1.2839421      7.2388568
   95   1   6  0.1128000      7.3746476      2.8263772      4.9446306
   96   1   8  0.2567000     -2.7772779     19.5186710     14.0552893
   97   1   3 -0.3879000      7.9879584      0.9838872     13.4051628
   98   1   3 -0.3879000     -3.3258405     19.3169899     15.2832737
   99   1   9  0.0000000      7.0375695      1.4818857     14.2729540
  100   1   9  0.0000000      7.0374465      0.7126865     15.4169121
  101   1   6  0.1128000     -1.9886913     18.9006214     13.6400347
  102   1  10 -0.0550000      6.1697459      1.0082564     16.4457302
  103   1  10 -0.0550000      6.1698732      2.5460567     14.1580992
  104   1  10 -0.0550000      5.3020496      2.0724273     16.3311615
  105   1  10 -0.0550000      5.3021727      2.8416264     15.1870594
  106   1  11  0.1128000      6.1696253      0.3721160     17.3918114
  107   1  11  0.1128000      6.1698217      3.1821971     13.2121611
  108   1  11  0.1128000      4.5840898      2.3170161     17.1823196
  109   1  11  0.1128000      4.5841608      3.7222064     15.0921364
  110   1   8  0.2567000     14.7769156      0.2220138     18.6334171
  111   1   3 -0.3879000      3.2889795     18.5773926     18.1037388
  112   1   3 -0.3879000     14.6026068      0.2442899      1.1875488
  113   1   4 -0.0839000      2.9868746     17.7688751      0.3862903
  114   1   4 -0.0839000      2.9869375     18.5377750      1.5302488
  115   1   6  0.1128000     15.0274382      1.0978094     18.0448055
  116   1   6  0.1128000      2.7941847     18.2510262      2.5580621
  117   1   6  0.1128000      2.7940702     16.7085896      0.2638360
  118   1   8  0.2567000     14.5810280      0.2386087      9.2249393
  119   1   3 -0.3879000      3.2889795     18.5773926      8.7065878
  120   1   3 -0.3879000     14.6026068      0.2442899     10.5846987
  121   1   4 -0.0839000      3.3262691     17.7398701      9.8027983
  122   1   4 -0.0839000      3.3262196     18.5090694     10.9467564
  123   1   6  0.1128000     14.5499954      1.1383251      8.6201248
  124   1   6  0.1128000      3.3502235     18.2037811     11.9870443
  125   1   6  0.1128000      3.3502235     16.6611977      9.6928186
  126   1   2  0.4291000      4.2919741      6.9884248     18.6395836
  127   1   3 -0.3879000      3.1178522      7.4170532     18.1037388
  128   1   3 -0.3879000      4.2114058      6.7856970      1.1875488
  129   1   4 -0.0839000      2.2441287      7.4891143      0.3755361
  130   1   4 -0.0839000      2.9102864      7.1045895      1.5193512
  131   1   5 -0.4526000      5.5313282      6.7656636     17.8430557
  132   1   6  0.1128000      2.5514483      7.0361166      2.5404253
  133   1   6  0.1128000      1.2155309      7.8074088      0.2461991
  134   1   7  0.1310000      5.5537515      5.6892333     17.4682369
  135   1   7  0.1310000      5.5446396      7.4782004     16.9534702
  136   1   7  0.1310000      6.4440041      6.9588227     18.4983444
  137   1   2  0.4291000      4.2172589      6.8072257      9.2249393
  138   1   3 -0.3879000      3.1178522      7.4170532      8.7065878
  139   1   3 -0.3879000      4.2114058      6.7856970     10.5846987
  140   1   4 -0.0839000      2.3739147      7.8033724      9.8027983
  141   1   4 -0.0839000      3.0397267      7.4189968     10.9467564
  142   1   5 -0.4526000      5.3090124      6.2262521      8.3941431
  143   1   6  0.1128000      2.7635050      7.5508595     11.9871883
  144   1   6  0.1128000      1.4275875      8.3221521      9.6929617
  145   1   7  0.1310000      5.0722222      5.1347222      8.1650076
  146   1   7  0.1310000      5.3952084      6.8091693      7.4182367
  147   1   7  0.1310000      6.2947459      6.2897916      8.9632549
  148   1   8  0.2567000     -7.0027390     12.1999922      4.6581392
  149   1   3 -0.3879000     -7.1023664     12.7758818      5.8861237
  150   1   3 -0.3879000     14.4315186     12.1443768      4.0080128
  151   1   4 -0.0839000     14.1910973     13.1031466      6.0197625
  152   1   4 -0.0839000     13.5248766     12.7186222      4.8758039
  153   1   6  0.1128000     -6.0732708     11.8259325      4.2428842
  154   1   6  0.1128000     12.4750595     12.8129597      4.6201410
  155   1   6  0.1128000     13.8109760     13.5842514      6.9143672
  156   1   2  0.4291000     -7.0027390     12.1999922     14.0552893
  157   1   3 -0.3879000     -7.1023664     12.7758818     15.2832737
  158   1   3 -0.3879000     14.4315186     12.1443768     13.4051628
  159   1   4 -0.0839000     14.1910973     13.1031466     15.4169121
  160   1   4 -0.0839000     13.5248766     12.7186222     14.2729540
  161   1   5 -0.4526000     -5.7258873     11.6861458     13.4847441
  162   1   6  0.1128000     12.4750595     12.8129597     14.0172911
  163   1   6  0.1128000     13.8109760     13.5842514     16.3115177
  164   1   7  0.1310000     -5.2075262     12.5184355     12.9030142
  165   1   7  0.1310000     -5.0467577     11.3330173     14.3295927
  166   1   7  0.1310000     -5.9463973     10.8137894     12.7845745
  167   1   8  0.2567000     -4.1937213      7.6647816      0.1512755
  168   1   3 -0.3879000     18.3790169      6.7856970      1.1875488
  169   1   3 -0.3879000     -3.1547537      7.4170532     18.1037388
  170   1   4 -0.0839000     -3.1815042      5.9330745      0.9890982
  171   1   4 -0.0839000     -2.5152831      6.3174500     18.6394405
  172   1   6  0.1128000     17.7259674      8.4743471      0.0114711
  173   1   6  0.1128000     -1.6363158      5.8879242     18.1718483
  174   1   6  0.1128000     19.6552391      5.1166320      1.6717739
  175   1   8  0.2567000     -4.0628047      7.7633052      9.6578312
  176   1   3 -0.3879000     18.3790169      6.7856970     10.5846987
  177   1   3 -0.3879000     -3.1547537      7.4170532      8.7065878
  178   1   9  0.0000000     19.2191525      5.7618923     10.1968307
  179   1   9  0.0000000     -2.7419276      6.1464171      9.0528727
  180   1   6  0.1128000     -4.5827885      8.7150488      9.6751814
  181   1  10 -0.0550000     -1.8372748      5.2914023      8.4621096
  182   1  10 -0.0550000     19.4582729      4.5225024     10.7495966
  183   1  10 -0.0550000     -1.5981524      4.0520124      9.0148745
  184   1  10 -0.0550000     20.3628674      3.6673381     10.1586895
  185   1  11  0.1128000     -1.2863437      5.6095476      7.5160279
  186   1  11  0.1128000     18.9073429      4.2045069     11.6956778
  187   1  11  0.1128000     -0.8496433      3.3445587      8.5260611
  188   1  11  0.1128000     20.5606785      2.6420383     10.6159573
  189   1   8  0.2567000      4.3794866      7.4551768      4.7471838
  190   1   3 -0.3879000      3.7580886      7.0471797      5.8861237
  191   1   3 -0.3879000      4.8518143      6.4158235      4.0080128
  192   1   9  0.0000000      3.8428288      5.6700964      5.8654757
  193   1   9  0.0000000      4.5088139      5.2855716      4.7215171
  194   1   6  0.1128000      4.4864063      8.4954271      4.4598322
  195   1  10 -0.0550000      4.7241764      3.9485557      4.4658546
  196   1  10 -0.0550000      3.3920343      4.7174559      6.7534847
  197   1  10 -0.0550000      4.2734413      2.9962139      5.3538632
  198   1  10 -0.0550000      3.6072838      3.3807387      6.4979653
  199   1  11  0.1128000      5.2749863      3.6305602      3.5197730
  200   1  11  0.1128000      2.8412244      5.0356007      7.6994228
  201   1  11  0.1128000      4.4512277      1.8901817      5.1425076
  202   1  11  0.1128000      3.2344327      2.5927019      7.2324042
  203   1   2  0.4291000      4.6974893      7.3756409     14.3564062
  204   1   3 -0.3879000      3.7580886      7.0471797     15.2832737
  205   1   3 -0.3879000      4.8518143      6.4158235     13.4051628
  206   1   4 -0.0839000      3.2916615      5.8077898     14.8952627
  207   1   4 -0.0839000      3.9578187      5.4232650     13.7511606
  208   1   5 -0.4526000      5.4731374      8.6476221     14.3802090
  209   1   6  0.1128000      3.8582823      4.5178676     13.1628351
  210   1   6  0.1128000      2.5224788      5.2888608     15.4570618
  211   1   7  0.1310000      4.9140925      9.4446297     13.7868652
  212   1   7  0.1310000      5.5992856      8.9955187     15.4584951
  213   1   7  0.1310000      6.4988227      8.4761410     13.9136209
  214   1   8  0.2567000     13.8798943      0.5317864      5.0676584
  215   1   3 -0.3879000      3.2889223     19.3169899      5.8861237
  216   1   3 -0.3879000     14.6027222      0.9838872      4.0080128
  217   1   9  0.0000000      4.5414839     19.2531528      5.3102732
  218   1   9  0.0000000     15.8549118      0.4263860      4.1663146
  219   1   6  0.1128000     12.8406811      0.7895317      5.2410159
  220   1  10 -0.0550000     16.9983425      0.5273014      3.4037712
  221   1  10 -0.0550000      5.6848507     18.5850182      5.6915445
  222   1  10 -0.0550000      6.8282309     19.4551315      3.7850428
  223   1  10 -0.0550000      6.8281078     18.6859322      4.9290013
  224   1  11  0.1128000     16.9985771      1.1631428      2.4576898
  225   1  11  0.1128000      5.6849022     17.9490261      6.6376262
  226   1  11  0.1128000      7.7741661     19.5384064      3.1542740
  227   1  11  0.1128000      7.7739830     18.1333656      5.2443142
  228   1   8  0.2567000     13.8486509      0.3703219     14.3564062
  229   1   3 -0.3879000      3.2889223     19.3169899     15.2832737
  230   1   3 -0.3879000     14.6027222      0.9838872     13.4051628
  231   1   9  0.0000000      4.5956564     19.5327244     14.8954058
  232   1   9  0.0000000     15.9090843      0.7061084     13.7514477
  233   1   6  0.1128000     12.7644310      0.3961861     14.3737564
  234   1  10 -0.0550000     17.1021862      1.0620779     13.1605415
  235   1  10 -0.0550000      5.7885799     19.1200924     15.4481716
  236   1  10 -0.0550000     18.2949352      0.6494463     13.7133064
  237   1  10 -0.0550000      6.9813337     19.4760628     14.8572645
  238   1  11  0.1128000     17.1021347      1.6982183     12.2146034
  239   1  11  0.1128000      5.7884579     18.4839535     16.3942528
  240   1  11  0.1128000     19.2820473      0.9439695     13.2246361
  241   1  11  0.1128000      7.9681530     19.1345959     15.3145323
  242   1   2  0.4291000      8.3836880      0.1459161     18.6846066
  243   1   3 -0.3879000      7.9880157      0.2442899      1.1875488
  244   1   3 -0.3879000     -3.3256111     18.5773926     18.1037388
  245   1   4 -0.0839000     -4.0115380     18.6699352      1.4414909
  246   1   4 -0.0839000     -4.0116606     17.9007378      0.2975324
  247   1   5 -0.4526000      9.1656113      1.1987247     17.9766960
  248   1   6  0.1128000     -4.4495091     16.9249229      0.1185828
  249   1   6  0.1128000     -4.4493957     18.4673576      2.4128089
  250   1   7  0.1310000      8.4499035      1.9350330     17.4817162
  251   1   7  0.1310000      9.8224697      1.7524884     18.7260475
  252   1   7  0.1310000      9.8221951      0.7138826     17.1811714
  253   1   8  0.2567000     -2.6617956     19.5061131      9.4457588
  254   1   3 -0.3879000      7.9880157      0.2442899     10.5846987
  255   1   3 -0.3879000     -3.3256111     18.5773926      8.7065878
  256   1   9  0.0000000     -4.4760523     19.0782318     10.5640507
  257   1   9  0.0000000     -4.4761758     18.3091831      9.4200926
  258   1   6  0.1128000      9.6061687      0.3378795      9.1584072
  259   1  10 -0.0550000     -5.5261822     17.4543171      9.1647167
  260   1  10 -0.0550000     -5.5262280     18.9922676     11.4520597
  261   1  10 -0.0550000     -6.5765305     17.3683529     10.0527248
  262   1  10 -0.0550000     -6.5764074     18.1375523     11.1966839
  263   1  11  0.1128000     -5.5263023     16.8183270      8.2184916
  264   1  11  0.1128000      5.7873716      0.0325919     12.3982849
  265   1  11  0.1128000     -7.4454689     16.6613464      9.8412266
  266   1  11  0.1128000     -7.4452257     18.0665379     11.9314098
  267   1   8  0.2567000      6.7300959     12.1218014      0.1512755
  268   1   3 -0.3879000      7.5186768     12.5141001      1.1875488
  269   1   3 -0.3879000      6.4251232     13.1454563     18.1037388
  270   1   4 -0.0839000      7.7236900     13.8642731      0.9890982
  271   1   4 -0.0839000      7.0577641     14.2489471     18.6394405
  272   1   6  0.1128000      6.3826361     11.1041260      0.0114711
  273   1   6  0.1128000      6.9902048     15.2249107     18.1718483
  274   1   6  0.1128000      8.3261213     14.4536180      1.6717739
  275   1   2  0.4291000      7.5029817     12.4982529      9.2249393
  276   1   3 -0.3879000      7.5186768     12.5141001     10.5846987
  277   1   3 -0.3879000      6.4251232     13.1454563      8.7065878
  278   1   4 -0.0839000      6.3845859     13.2121353     10.9467564
  279   1   4 -0.0839000      5.7183142     13.5968094      9.8027983
  280   1   5 -0.4526000      8.5519333     11.8432751      8.3941431
  281   1   6  0.1128000      4.7962809     14.1568527      9.6929617
  282   1   6  0.1128000      6.1320243     13.3855600     11.9871883
  283   1   7  0.1310000      9.3790112     12.5937862      8.1650076
  284   1   7  0.1310000      8.9896564     10.9577618      8.9632549
  285   1   7  0.1310000      8.0902920     11.4771395      7.4182367
  286   1   8  0.2567000     -0.0183578      7.9896545      7.2176352
  287   1   3 -0.3879000      1.1130881      7.7770596      6.4938068
  288   1   3 -0.3879000     -1.1499529      7.7770596      6.4938068
  289   1   4 -0.0839000      0.6709294      7.4083819      5.2397256
  290   1   4 -0.0839000     -0.7077146      7.4083819      5.2397256
  291   1   6  0.1128000     -0.0183611      8.2955399      8.2580671
  292   1   6  0.1128000     -1.4009326      7.1732121      4.4394708
  293   1   6  0.1128000      1.3637786      7.1732121      4.4394708
  294   1   8  0.2567000     -0.0183578      7.9896545     16.6147861
  295   1   3 -0.3879000      1.1130881      7.7770596     15.8909569
  296   1   3 -0.3879000     -1.1499529      7.7770596     15.8909569
  297   1   9  0.0000000      0.6709294      7.4083819     14.6368761
  298   1   9  0.0000000     -0.7077146      7.4083819     14.6368761
  299   1   6  0.1128000     -0.0183611      8.2955399     17.6552162
  300   1  10 -0.0550000     -1.3966477      7.0719976     13.4919138
  301   1  10 -0.0550000      1.3597770      7.0719976     13.4919138
  302   1  10 -0.0550000     -0.7077999      6.7354636     12.3469515
  303   1  10 -0.0550000      0.6706715      6.7354636     12.3469515
  304   1  11  0.1128000     -2.5367131      7.0719976     13.4919138
  305   1  11  0.1128000      2.4996700      7.0719976     13.4919138
  306   1  11  0.1128000     -1.2776141      6.4570866     11.3997231
  307   1  11  0.1128000      1.2407501      6.4570866     11.3997231