537
Atoms. Timestep: 0
Zn -2.88954 8.11479 7.04786
Zn -2.88954 8.11479 16.445
Zn 14.1663 11.4465 2.34929
Zn 14.1663 11.4465 11.7464
Zn 5.68835 13.0262 7.04786
Zn 5.68835 13.0262 16.445
Zn -2.85398 17.9991 7.04786
Zn -2.85398 17.9991 16.445
Zn 14.1307 1.56217 2.34929
Zn 14.1307 1.56217 11.7464
Zn 5.58865 6.53543 2.34929
Zn 5.58865 6.53543 11.7464
Zn 8.42403 11.4465 2.34929
Zn 8.42403 11.4465 11.7464
Zn 17.0017 6.53543 2.34929
Zn 17.0017 6.53543 11.7464
Zn 8.45994 1.56217 2.34929
Zn 8.45994 1.56217 11.7464
Zn 2.81717 17.9991 7.04786
Zn 2.81717 17.9991 16.445
Zn -5.72508 13.0262 7.04786
Zn -5.72508 13.0262 16.445
Zn 2.85273 8.11479 7.04786
Zn 2.85273 8.11479 16.445
C 18.0438 7.43948 4.84985
N 17.7388 6.41582 4.00801
N -3.79493 7.04718 5.88612
C 18.3715 5.31263 4.54357
C 19.0375 5.69716 5.68753
C -5.06114 8.83794 4.658
H 19.6397 5.10766 6.37021
H 18.304 4.33637 4.07598
H -4.30739 9.41338 4.02551
H 16.5568 8.82538 4.12832
H -5.17089 9.34461 5.67319
C 18.0438 7.43948 14.247
N 17.7388 6.41582 13.4052
N -3.79493 7.04718 15.2833
C 18.3715 5.31263 13.9407
C 19.0375 5.69716 15.0847
C -5.06114 8.83794 14.0551
H 19.6397 5.10766 15.7674
H 18.304 4.33637 13.4731
H -4.30739 9.41338 13.4227
H 16.5568 8.82538 13.5255
H -5.17089 9.34461 15.0703
C 15.5206 12.14 18.7539
N -6.46207 13.1455 18.1037
N 15.0717 12.5141 1.18755
C -6.506 14.2176 0.177372
C -7.17211 13.8329 1.32147
H 15.3798 11.1481 18.3386
H -7.39845 14.4025 2.21608
H -6.06271 15.1738 18.7162
C 15.3549 12.2205 9.28746
N -6.46207 13.1455 8.70659
N 15.0717 12.5141 10.5847
C -6.2187 14.0778 9.69468
C -6.8848 13.6931 10.8386
H 14.9758 11.3448 8.77226
H -6.92818 14.1734 11.81
H -5.59227 14.9447 9.51588
C 7.11996 11.8968 4.84985
N 8.15926 12.1444 4.00801
N 7.06542 12.7759 5.88612
C 8.79819 13.244 4.54357
C 8.13221 13.6285 5.68753
C 6.14772 10.7842 4.658
H 8.34157 14.4448 6.37021
H 9.67749 13.6735 4.07598
H 5.27231 11.1493 4.02551
H 6.6633 9.91632 4.12832
H 5.76394 10.4355 5.67319
C 7.02275 12.0337 14.1443
N 8.15926 12.1444 13.4052
N 7.06542 12.7759 15.2833
C 8.96656 13.0066 14.1187
C 8.30058 13.3909 15.2626
H 6.17553 11.4211 13.857
C 8.90019 14.2578 16.1506
C 10.2321 13.4886 13.863
C 10.1654 14.7398 15.8951
C 10.8315 14.3551 14.751
H 8.3492 14.5758 17.0966
H 10.7829 13.1706 12.9169
H 10.6615 15.4566 16.6296
H 11.8783 14.7541 14.5397
C -3.10962 19.3485 4.54386
N 7.98796 0.983887 4.00801
N -3.32584 19.317 5.88612
C 7.61347 1.77641 5.07397
C 7.61335 1.00721 6.21793
H -2.79884 18.486 3.96414
H 7.37453 1.28394 7.23886
H 7.37465 2.82638 4.94463
C -2.77728 19.5187 14.0553
N 7.98796 0.983887 13.4052
N -3.32584 19.317 15.2833
C 7.03757 1.48189 14.273
C 7.03745 0.712687 15.4169
H -1.98869 18.9006 13.64
C 6.16975 1.00826 16.4457
C 6.16987 2.54606 14.1581
C 5.30205 2.07243 16.3312
C 5.30217 2.84163 15.1871
H 6.16963 0.372116 17.3918
H 6.16982 3.1822 13.2122
H 4.58409 2.31702 17.1823
H 4.58416 3.72221 15.0921
C 14.7769 0.222014 18.6334
N 3.28898 18.5774 18.1037
N 14.6026 0.24429 1.18755
C 2.98687 17.7689 0.38629
C 2.98694 18.5378 1.53025
H 15.0274 1.09781 18.0448
H 2.79418 18.251 2.55806
H 2.79407 16.7086 0.263836
C 14.581 0.238609 9.22494
N 3.28898 18.5774 8.70659
N 14.6026 0.24429 10.5847
C 3.32627 17.7399 9.8028
C 3.32622 18.5091 10.9468
H 14.55 1.13833 8.62012
H 3.35022 18.2038 11.987
H 3.35022 16.6612 9.69282
C 4.29197 6.98842 18.6396
N 3.11785 7.41705 18.1037
N 4.21141 6.7857 1.18755
C 2.24413 7.48911 0.375536
C 2.91029 7.10459 1.51935
C 5.53133 6.76566 17.8431
H 2.55145 7.03612 2.54043
H 1.21553 7.80741 0.246199
H 5.55375 5.68923 17.4682
H 5.54464 7.4782 16.9535
H 6.444 6.95882 18.4983
C 4.21726 6.80723 9.22494
N 3.11785 7.41705 8.70659
N 4.21141 6.7857 10.5847
C 2.37391 7.80337 9.8028
C 3.03973 7.419 10.9468
C 5.30901 6.22625 8.39414
H 2.7635 7.55086 11.9872
H 1.42759 8.32215 9.69296
H 5.07222 5.13472 8.16501
H 5.39521 6.80917 7.41824
H 6.29475 6.28979 8.96325
C -7.00274 12.2 4.65814
N -7.10237 12.7759 5.88612
N 14.4315 12.1444 4.00801
C 14.1911 13.1031 6.01976
C 13.5249 12.7186 4.8758
H -6.07327 11.8259 4.24288
H 12.4751 12.813 4.62014
H 13.811 13.5843 6.91437
C -7.00274 12.2 14.0553
N -7.10237 12.7759 15.2833
N 14.4315 12.1444 13.4052
C 14.1911 13.1031 15.4169
C 13.5249 12.7186 14.273
C -5.72589 11.6861 13.4847
H 12.4751 12.813 14.0173
H 13.811 13.5843 16.3115
H -5.20753 12.5184 12.903
H -5.04676 11.333 14.3296
H -5.9464 10.8138 12.7846
C -4.19372 7.66478 0.151276
N 18.379 6.7857 1.18755
N -3.15475 7.41705 18.1037
C -3.1815 5.93307 0.989098
C -2.51528 6.31745 18.6394
H 17.726 8.47435 0.0114711
H -1.63632 5.88792 18.1718
H 19.6552 5.11663 1.67177
C -4.0628 7.76331 9.65783
N 18.379 6.7857 10.5847
N -3.15475 7.41705 8.70659
C 19.2192 5.76189 10.1968
C -2.74193 6.14642 9.05287
H -4.58279 8.71505 9.67518
C -1.83727 5.2914 8.46211
C 19.4583 4.5225 10.7496
C -1.59815 4.05201 9.01487
C 20.3629 3.66734 10.1587
H -1.28634 5.60955 7.51603
H 18.9073 4.20451 11.6957
H -0.849643 3.34456 8.52606
H 20.5607 2.64204 10.616
C 4.37949 7.45518 4.74718
N 3.75809 7.04718 5.88612
N 4.85181 6.41582 4.00801
C 3.84283 5.6701 5.86548
C 4.50881 5.28557 4.72152
H 4.48641 8.49543 4.45983
C 4.72418 3.94856 4.46585
C 3.39203 4.71746 6.75348
C 4.27344 2.99621 5.35386
C 3.60728 3.38074 6.49797
H 5.27499 3.63056 3.51977
H 2.84122 5.0356 7.69942
H 4.45123 1.89018 5.14251
H 3.23443 2.5927 7.2324
C 4.69749 7.37564 14.3564
N 3.75809 7.04718 15.2833
N 4.85181 6.41582 13.4052
C 3.29166 5.80779 14.8953
C 3.95782 5.42326 13.7512
C 5.47314 8.64762 14.3802
H 3.85828 4.51787 13.1628
H 2.52248 5.28886 15.4571
H 4.91409 9.44463 13.7869
H 5.59929 8.99552 15.4585
H 6.49882 8.47614 13.9136
C 13.8799 0.531786 5.06766
N 3.28892 19.317 5.88612
N 14.6027 0.983887 4.00801
C 4.54148 19.2532 5.31027
C 15.8549 0.426386 4.16631
H 12.8407 0.789532 5.24102
C 16.9983 0.527301 3.40377
C 5.68485 18.585 5.69154
C 6.82823 19.4551 3.78504
C 6.82811 18.6859 4.929
H 16.9986 1.16314 2.45769
H 5.6849 17.949 6.63763
H 7.77417 19.5384 3.15427
H 7.77398 18.1334 5.24431
C 13.8487 0.370322 14.3564
N 3.28892 19.317 15.2833
N 14.6027 0.983887 13.4052
C 4.59566 19.5327 14.8954
C 15.9091 0.706108 13.7514
H 12.7644 0.396186 14.3738
C 17.1022 1.06208 13.1605
C 5.78858 19.1201 15.4482
C 18.2949 0.649446 13.7133
C 6.98133 19.4761 14.8573
H 17.1021 1.69822 12.2146
H 5.78846 18.484 16.3943
H 19.282 0.94397 13.2246
H 7.96815 19.1346 15.3145
C 8.38369 0.145916 18.6846
N 7.98802 0.24429 1.18755
N -3.32561 18.5774 18.1037
C -4.01154 18.6699 1.44149
C -4.01166 17.9007 0.297532
C 9.16561 1.19872 17.9767
H -4.44951 16.9249 0.118583
H -4.4494 18.4674 2.41281
H 8.4499 1.93503 17.4817
H 9.82247 1.75249 18.726
H 9.8222 0.713883 17.1812
C -2.6618 19.5061 9.44576
N 7.98802 0.24429 10.5847
N -3.32561 18.5774 8.70659
C -4.47605 19.0782 10.5641
C -4.47618 18.3092 9.42009
H 9.60617 0.337879 9.15841
C -5.52618 17.4543 9.16472
C -5.52623 18.9923 11.4521
C -6.57653 17.3684 10.0527
C -6.57641 18.1376 11.1967
H -5.5263 16.8183 8.21849
H 5.78737 0.0325919 12.3983
H -7.44547 16.6613 9.84123
H -7.44523 18.0665 11.9314
C 6.7301 12.1218 0.151276
N 7.51868 12.5141 1.18755
N 6.42512 13.1455 18.1037
C 7.72369 13.8643 0.989098
C 7.05776 14.2489 18.6394
H 6.38264 11.1041 0.0114711
H 6.9902 15.2249 18.1718
H 8.32612 14.4536 1.67177
C 7.50298 12.4983 9.22494
N 7.51868 12.5141 10.5847
N 6.42512 13.1455 8.70659
C 6.38459 13.2121 10.9468
C 5.71831 13.5968 9.8028
C 8.55193 11.8433 8.39414
H 4.79628 14.1569 9.69296
H 6.13202 13.3856 11.9872
H 9.37901 12.5938 8.16501
H 8.98966 10.9578 8.96325
H 8.09029 11.4771 7.41824
C -0.0183578 7.98965 7.21764
N 1.11309 7.77706 6.49381
N -1.14995 7.77706 6.49381
C 0.670929 7.40838 5.23973
C -0.707715 7.40838 5.23973
H -0.0183611 8.29554 8.25807
H -1.40093 7.17321 4.43947
H 1.36378 7.17321 4.43947
C -0.0183578 7.98965 16.6148
N 1.11309 7.77706 15.891
N -1.14995 7.77706 15.891
C 0.670929 7.40838 14.6369
C -0.707715 7.40838 14.6369
H -0.0183611 8.29554 17.6552
C -1.39665 7.072 13.4919
C 1.35978 7.072 13.4919
C -0.7078 6.73546 12.347
C 0.670671 6.73546 12.347
H -2.53671 7.072 13.4919
H 2.49967 7.072 13.4919
H -1.27761 6.45709 11.3997
H 1.24075 6.45709 11.3997
C 11.2954 11.1222 2.15643
N 10.1636 11.7845 1.79538
N 12.4269 11.7845 1.79538
C 10.6059 12.9323 1.16963
C 11.9844 12.9323 1.16963
H 11.2951 10.1702 2.67578
H 12.6774 13.6645 0.77
H 9.91298 13.6645 0.77
C 11.2954 11.1222 11.5536
N 10.1636 11.7845 11.1925
N 12.4269 11.7845 11.1925
C 10.6059 12.9323 10.5668
C 11.9844 12.9323 10.5668
H 11.2951 10.1702 12.0729
C 12.6735 13.9798 9.99523
C 9.91705 13.9798 9.99523
C 11.9843 15.0276 9.42382
C 10.6058 15.0276 9.42382
H 13.8134 13.9798 9.99523
H 8.77698 13.9798 9.99523
H 12.5544 15.8944 8.95121
H 10.036 15.8944 8.95121
C 4.36116 15.5752 7.21764
N 3.97942 16.6615 6.49381
N 5.11101 14.7015 6.49381
C 4.51985 16.4628 5.23973
C 5.20919 15.2689 5.23973
H 4.0962 15.4223 8.25807
C 5.84493 14.8405 4.09476
C 4.4667 17.2277 4.09476
C 5.79184 15.6055 2.9498
C 5.10261 16.7993 2.9498
H 6.41491 13.8532 4.09476
H 3.89672 18.2148 4.09476
H 6.31795 15.2511 2.00257
H 5.05874 17.432 2.00257
C 4.20524 15.4852 16.5351
N 3.97942 16.6615 15.891
N 5.11101 14.7015 15.891
C 4.79025 16.6189 14.775
C 5.47948 15.4251 14.775
H 3.71606 15.2028 17.4608
H 6.20198 15.0419 14.0629
H 4.81968 17.4362 14.0629
C -3.94753 15.3151 6.67147
N -5.14786 14.7015 6.49381
N -4.01641 16.6615 6.49381
C -6.02706 15.7199 6.18595
C -5.33782 16.9137 6.18595
C -2.69326 14.591 7.02248
H -5.69355 17.9191 5.98951
H -7.07573 15.5251 5.98951
H -2.5925 14.5329 8.15655
H -2.72914 13.537 6.58959
H -1.79841 15.1491 6.58959
C -4.00892 15.3506 16.2524
N -5.14786 14.7015 15.891
N -4.01641 16.6615 15.891
C -5.92058 15.6585 15.2648
C -5.23134 16.8523 15.2648
H -3.18445 14.8746 16.7718
C -5.79401 17.9726 14.6932
C -7.17221 15.5855 14.6932
C -7.0458 17.8998 14.1215
C -7.73505 16.706 14.1215
H -5.22392 18.96 14.6932
H -7.74218 14.598 14.6932
H -7.5112 18.8266 13.6484
H -8.77052 16.6456 13.6484
C 15.5187 4.07638 2.43934
N 16.4246 4.85978 1.79523
N 15.2932 2.89978 1.79523
C 16.7933 4.13633 0.679378
C 16.1039 2.94254 0.679378
H 15.0295 4.35865 3.36506
H 16.1337 2.1252 18.7616
H 17.5159 4.51936 18.7616
C 15.8431 3.88905 11.9466
N 16.4246 4.85978 11.1924
N 15.2932 2.89978 11.1924
C 16.2309 4.46106 9.88568
C 15.5417 3.26697 9.88568
H 15.8204 3.90206 13.0308
H 15.2128 2.65684 9.05173
H 16.5949 5.051 9.05173
C 7.36629 4.24637 1.97289
N 7.29735 2.89978 1.79538
N 6.16576 4.85978 1.79538
C 5.97575 2.64757 1.48781
C 5.28652 3.84136 1.48781
H 8.2793 4.77337 2.22784
C 3.93751 3.85826 1.20719
C 5.31574 1.47112 1.20719
C 3.27761 2.68151 0.926437
C 3.96684 1.48772 0.926437
H 3.36753 4.84543 1.20719
H 5.88583 0.483646 1.20719
H 2.16145 2.69541 0.694003
H 3.42066 0.514444 0.694003
C 7.36629 4.24637 11.37
N 7.29735 2.89978 11.1925
N 6.16576 4.85978 11.1925
C 5.97575 2.64757 10.885
C 5.28652 3.84136 10.885
C 8.62072 4.97042 11.7205
H 4.23805 4.03617 10.6887
H 5.62024 1.64215 10.6887
H 8.72143 5.02872 12.8545
H 9.51549 4.41217 11.2874
H 8.58472 6.02427 11.2874
C -3.95322 10.7749 7.62543
N -4.32513 11.867 6.90505
N -3.19354 9.90705 6.90505
C -3.76739 11.6781 5.65684
C -3.07817 10.4843 5.65684
H -4.23231 10.6138 8.66085
H -2.51702 10.0081 4.86046
H -3.89921 12.4021 4.86046
C -4.23919 10.6097 16.814
N -4.32513 11.867 16.3022
N -3.19354 9.90705 16.3022
C -3.27208 11.9642 15.4155
C -2.58274 10.7703 15.4155
H -4.92915 10.2114 17.5495
H -1.70547 10.4767 14.8495
H -3.08766 12.8707 14.8495
C 15.479 8.93033 1.65227
N 15.6018 7.69453 2.20647
N 14.4702 9.65453 2.20647
C 14.6124 7.63413 3.16689
C 13.9232 8.82792 3.16689
H 16.1161 9.29826 0.855316
H 13.0868 9.14517 3.77974
H 14.4691 6.75101 3.77974
C 15.6596 9.03469 11.3794
N 15.6018 7.69453 11.6036
N 14.4702 9.65453 11.6036
C 14.2996 7.45353 11.9919
C 13.6104 8.64717 11.9919
H 16.5565 9.55242 11.0573
H 12.5739 8.849 12.2398
H 13.9561 6.45499 12.2398
C 3.91641 10.7749 7.62543
N 3.15641 9.90705 6.90505
N 4.28803 11.867 6.90505
C 3.04114 10.4843 5.65684
C 3.73039 11.6781 5.65684
C 4.29992 10.5535 9.048
H 3.86218 12.4021 4.86046
H 2.48 10.0081 4.86046
H 3.50909 11.0101 9.73024
H 4.3767 9.43446 9.25118
H 5.30742 11.0466 9.25118
C 3.91641 10.7749 17.0226
N 3.15641 9.90705 16.3022
N 4.28803 11.867 16.3022
C 3.04114 10.4843 15.054
C 3.73039 11.6781 15.054
H 4.19562 10.6138 18.058
C 3.76773 12.4522 13.9145
C 2.38954 10.0651 13.9145
C 3.1163 12.0328 12.7751
C 2.42699 10.8389 12.7751
H 4.33799 13.4394 13.9145
H 1.81974 9.0776 13.9145
H 3.14719 12.673 11.8325
H 1.88803 10.4921 11.8325
C -0.0183792 17.8779 6.35085
N 1.11308 17.3663 6.90505
N -1.15013 17.3663 6.90505
C 0.670711 16.4795 7.86547
C -0.707588 16.4795 7.86547
C -0.0184383 18.8887 5.25607
H -1.40076 15.9135 8.47846
H 1.36377 15.9135 8.47846
H 11.2954 0.340122 5.70588
H 0.912525 18.7514 4.61225
H -0.949317 18.7514 4.61225
C -0.0186071 18.0341 16.6531
N 1.11308 17.3663 16.3022
N -1.15013 17.3663 16.3022
C 0.670891 16.2089 15.6944
C -0.707753 16.2089 15.6944
H -0.0183678 18.9941 17.1574
C -1.39672 15.1524 15.1393
C 1.3597 15.1524 15.1393
C -0.707624 14.0959 14.5844
C 0.670848 14.0959 14.5844
H -2.53661 15.1524 15.1393
H 2.49977 15.1524 15.1393
H -1.27767 13.2219 14.1253
H 1.24069 13.2219 14.1253
C 11.2954 1.64096 2.71823
N 10.1637 2.19517 2.20647
N 12.4269 2.19517 2.20647
C 10.606 3.15573 1.31975
C 11.9845 3.15573 1.31975
H 11.2953 0.84425 3.45381
C 12.6735 4.03243 0.510322
C 9.91705 4.03243 0.510322
C 11.9847 4.90927 18.495
C 10.6059 4.90927 18.495
H 13.8137 4.03243 0.510322
H 8.77716 4.03243 0.510322
H 12.5547 5.63481 17.8254
H 10.036 5.63481 17.8254
C 11.2951 1.97121 12.324
N 10.1637 2.19517 11.6036
N 12.4269 2.19517 11.6036
C 10.606 2.58373 10.3554
C 11.9845 2.58373 10.3554
H 11.2953 1.64873 13.3594
H 12.6776 2.83161 9.55904
H 9.91309 2.83161 9.55904
C 7.00231 8.99328 1.80355
N 8.12024 9.65453 2.20647
N 6.98862 7.69453 2.20647
C 8.85624 8.71879 2.90463
C 8.16699 7.525 2.90463
H 6.20839 9.45166 1.22426
H 8.43135 6.57221 3.35029
H 9.81353 8.96622 3.35029
C 7.11113 8.93033 11.0494
N 8.12024 9.65453 11.6036
N 6.98862 7.69453 11.6036
C 8.6672 8.82792 12.564
C 7.97795 7.63413 12.564
H 6.4741 9.29826 10.2525
H 8.12153 6.75101 13.1769
H 9.50377 9.14517 13.1769
537
Atoms. Timestep: 100
Zn -2.84725 8.09848 7.10469
Zn -2.88306 8.04758 16.543
Zn 14.0384 11.549 2.3549
Zn 14.1717 11.3979 11.7052
Zn 5.66005 13.0434 6.98437
Zn 5.68809 13.0059 16.481
Zn -3.00492 17.9884 7.02589
Zn -2.92426 17.8867 16.4581
Zn 14.2162 1.58188 2.34105
Zn 14.2336 1.57828 11.6869
Zn 5.5957 6.46962 2.48588
Zn 5.8028 6.53061 11.5658
Zn 8.66581 11.4669 2.19033
Zn 8.56796 11.4495 11.7803
Zn 16.9182 6.44487 2.34436
Zn 17.0644 6.43589 11.4955
Zn 8.44808 1.63225 2.40423
Zn 8.44754 1.56703 11.5921
Zn 2.93289 18.064 6.86486
Zn 2.9096 18.072 16.3366
Zn -5.75681 13.0451 7.09051
Zn -5.65544 12.9357 16.443
Zn 2.64017 8.01685 6.8689
Zn 2.7697 8.00049 16.4059
C 17.6371 7.22042 5.15684
N 17.415 6.21473 4.20673
N 18.6085 6.87313 6.01733
C 18.2991 5.2499 4.58456
C 19.0084 5.66097 5.63024
C 16.9789 8.59621 5.04673
H -2.95192 5.26296 5.92168
H 18.4422 4.54354 4.13433
H 17.5173 9.15987 4.41498
H 16.1005 8.45905 4.71951
H 16.9814 9.06721 5.91775
C 17.6707 7.27857 14.4515
N 17.3373 6.24959 13.5982
N 18.458 6.87229 15.5086
C 17.8948 5.17947 14.192
C 18.5061 5.54401 15.3401
C 17.1998 8.72028 14.289
H 18.9163 5.00637 15.9335
H 17.8129 4.36027 13.9013
H -4.73576 9.13618 13.6936
H 16.3516 8.7905 13.8365
H 17.1434 9.18727 15.2224
C 15.6154 12.1224 18.811
N -6.58865 13.1663 18.0879
N 15.1993 12.5195 1.21291
C -6.68265 14.2688 0.12427
C -7.19051 13.8682 1.27521
H 15.554 11.3724 18.4365
H -7.4461 14.4001 1.88396
H -6.45881 15.1374 18.6825
C -7.01333 12.2294 9.44308
N -6.39053 13.2511 8.88002
N -7.20272 12.4391 10.7431
C -6.13117 14.1097 9.84487
C -6.65305 13.6459 10.973
H 15.3266 11.5619 9.01652
H -6.57231 14.0533 11.7301
H -5.71355 14.8952 9.77003
C 7.36786 11.8068 4.93759
N 8.40264 12.1053 4.07125
N 7.22719 12.7478 5.85679
C 8.91443 13.2942 4.52034
C 8.26494 13.6366 5.61325
C 6.53653 10.6158 4.90359
H 8.42384 14.3483 6.17621
H 9.60241 13.6919 4.13722
H 5.88377 10.7527 4.13683
H 7.07367 9.84515 4.69636
H 6.12656 10.4353 5.79304
C 7.21841 11.9491 14.2749
N 8.35015 12.11 13.5901
N 7.22263 12.7139 15.3426
C 9.0664 13.0436 14.2425
C 8.41511 13.4377 15.292
H 6.5937 11.3992 14.042
C 8.84368 14.3759 16.123
C 10.2709 13.603 13.9609
C 10.0458 14.9266 15.8534
C 10.7419 14.5998 14.7279
H 8.25418 14.8895 16.5345
H 10.8134 13.1402 13.4966
H 10.3608 15.5061 16.4239
H 11.6131 14.8864 14.6135
C 8.11963 -0.000755763 4.63577
N 8.10752 1.21128 4.17169
N 8.08176 -0.029806 5.96891
C 7.97392 2.03929 5.24816
C 8.00182 1.26397 6.37504
H -3.04011 18.763 4.17861
H 7.9221 1.56564 7.21915
H 7.865 2.86521 5.24125
C 8.91258 0.122025 14.2425
N 8.20881 1.08285 13.5412
N -3.02674 19.4673 15.4134
C 7.18311 1.44336 14.3417
C 7.23619 0.72731 15.5031
H -1.76852 19.1836 13.8275
C 6.41857 0.959438 16.4748
C 6.2771 2.36916 14.1053
C 5.51118 1.95968 16.2969
C 5.49163 2.69879 15.1804
H 6.21921 0.335688 17.0041
H 6.02417 2.61665 13.3307
H 4.77756 1.94725 16.7269
H 5.06478 3.4072 15.2222
C 14.6297 0.00723318 18.6002
N 3.32534 18.3328 18.1127
N 2.94463 19.6216 1.11859
C 2.82145 17.5722 0.332293
C 2.53552 18.3795 1.38747
H 14.9664 0.725216 18.2239
H 2.17149 18.0984 2.22555
H 2.61732 16.6942 0.229554
C 14.4567 0.104495 9.28575
N 3.2527 18.4386 8.74504
N 3.18964 19.6642 10.5845
C 3.32272 17.5903 9.84834
C 3.24494 18.334 10.9382
H 14.3251 0.864711 8.75299
H 3.21262 18.0382 11.7765
H 3.39604 16.7082 9.86063
C 4.26708 7.10058 18.7892
N 3.05202 7.28446 18.2333
N 4.18499 7.17362 1.33042
C 2.14727 7.30617 0.494767
C 2.81495 7.19708 1.62113
C 5.54928 6.9973 18.0229
H 2.46043 7.17244 2.43919
H 1.2928 7.3944 0.429792
H 5.3092 6.45385 17.2638
H 5.67316 7.86404 17.6677
H 6.30318 6.60181 18.5024
C 4.25474 6.92561 9.2185
N 3.04191 7.24876 8.76924
N 4.45596 7.30589 10.488
C 2.37241 7.64458 9.87873
C 3.18829 7.73586 10.9097
C 5.33689 6.51281 8.21869
H 2.91983 7.78223 11.8163
H 1.54628 7.82182 9.84909
H 5.09718 5.67768 7.72472
H 5.47208 7.19879 7.64731
H 6.15643 6.30676 8.74705
C 15.3981 11.8884 4.79896
N 15.3471 12.4185 6.04538
N 14.2753 12.1295 4.11946
C 14.1072 13.0412 6.11751
C 13.4604 12.8674 4.96592
H -6.48704 11.4987 4.44767
H 12.6371 13.1476 4.782
H 13.8616 13.4555 6.85366
C -6.92285 11.9877 14.0927
N 15.6181 12.174 15.3926
N 14.4891 11.9149 13.5192
C 14.3254 12.1109 15.6982
C 13.6088 11.9654 14.5702
C -5.6246 12.0185 13.2968
H 12.7207 11.9868 14.495
H 13.9907 12.0804 16.4688
H -5.25924 12.9643 13.2977
H -4.93377 11.4377 13.6908
H -5.76759 11.7133 12.3484
C -3.89758 7.65398 0.321811
N 18.6436 6.71272 1.18297
N -2.80805 7.55962 18.3373
C -2.85427 5.92318 0.979788
C -2.14491 6.43959 -0.00621046
H -4.53939 8.26256 0.142439
H -1.35732 6.17037 18.5611
H -2.64737 5.23071 1.43808
C -3.58346 7.75091 9.90548
N 18.7219 6.67344 10.6701
N -2.71256 7.38054 8.9512
C -3.11472 5.66837 10.2523
C -2.47191 6.0704 9.18437
H -3.92161 8.57404 10.0391
C -1.63756 5.30257 8.54087
C 19.686 4.4413 10.7378
C -1.48342 4.00928 8.95638
C 20.5093 3.57687 10.0521
H -1.32632 5.50514 7.75811
H 19.508 4.30866 11.5551
H -1.21105 3.37138 8.36836
H 20.3975 2.72941 10.2026
C 4.73619 7.33099 4.95543
N 3.70724 6.9652 5.70616
N 5.27642 6.26637 4.36506
C 3.61315 5.63254 5.66053
C 4.65003 5.18 4.93864
H 4.96889 8.15398 4.72683
C 4.94085 3.87623 4.91933
C 2.79075 4.78678 6.15376
C 4.15573 3.03355 5.52651
C 2.98981 3.48887 6.01684
H 5.6525 3.58844 4.53399
H 1.95819 5.02802 6.26735
H 4.28352 2.20363 5.45119
H 2.25935 2.96822 5.98168
C 4.79198 7.36876 14.2002
N 3.92882 6.96163 15.1957
N 4.99506 6.39228 13.3238
C 3.70132 5.64159 14.9291
C 4.38804 5.30098 13.8434
C 5.34306 8.79946 14.0809
H 4.44764 4.4894 13.4819
H 3.19525 5.12496 15.4525
H 5.08573 9.22696 13.2073
H 4.96845 9.38654 14.8196
H 6.29753 8.78606 14.2018
C 14.2536 0.89695 5.22163
N 14.9228 0.160053 6.07323
N 15.0145 1.20511 4.0681
C 16.1593 0.196701 5.563
C 16.2061 0.641962 4.3163
H 13.4325 1.02424 5.43674
C 17.3007 0.470071 3.59972
C 5.90182 19.121 6.01227
C 7.08185 19.457 4.12601
C 7.0302 18.9106 5.29362
H 17.2934 0.645336 2.73421
H 5.88726 18.7542 6.83559
H 7.84493 19.4879 3.76297
H 7.4391 18.1491 5.38005
C 14.0506 0.765446 14.469
N 14.7606 -0.00236115 15.287
N 14.8395 1.28853 13.4826
C 16.0302 0.0969118 14.8524
C 16.0671 0.896496 13.7901
H 13.1151 0.943153 14.561
C 17.2719 1.07635 13.1504
C 5.84918 19.2729 15.372
C 18.4231 0.563545 13.665
C 7.03638 19.4169 14.7479
H 17.3167 1.46286 12.4164
H 5.85297 19.0824 16.2072
H 19.1358 0.495928 13.0848
H 7.73994 19 15.0582
C 8.63027 0.0280816 18.782
N 8.4578 0.0807011 1.3232
N -3.36664 18.5716 18.2217
C -3.66351 18.5749 1.62608
C -4.02307 17.9858 0.482455
C 9.51796 1.05925 17.965
H -4.49772 17.2305 0.420492
H -4.02664 18.4018 2.41273
H 9.02036 1.96181 17.7768
H 10.3796 1.31476 18.4882
H 9.77744 0.712945 17.0571
C -2.59418 18.8974 9.71816
N -3.20663 19.3478 10.8627
N -3.43614 18.2343 8.92765
C -4.45917 18.8382 10.7617
C -4.58867 18.2064 9.55606
H -1.75206 19.0955 9.4182
C -5.73761 17.646 9.25811
C -5.54289 18.931 11.5674
C -6.76754 17.7002 10.0861
C -6.69669 18.4301 11.1789
H -5.97097 17.4883 8.3838
H -5.46659 19.158 12.473
H -7.50085 17.1937 9.90672
H -7.41431 18.6802 11.539
C 6.66607 12.0597 0.181878
N 7.67942 12.5076 0.902322
N 6.0684 13.0992 18.3566
C 7.72359 13.8378 0.83122
C 6.72793 14.2143 0.0557684
H 6.46899 11.165 0.0677043
H 6.58103 15.1018 18.6581
H 8.23372 14.3782 1.29101
C 7.21521 12.3167 9.25727
N 7.29237 12.3861 10.5899
N 6.35555 13.1827 8.74038
C 6.33601 13.3334 10.9886
C 5.77447 13.8111 9.84632
C 8.17499 11.4631 8.46864
H 5.15265 14.4299 9.80354
H 6.07855 13.5193 11.8601
H 8.60658 12.0635 7.86617
H 8.83312 11.0333 9.01808
H 7.71467 10.8227 7.84828
C -0.0637828 8.15383 7.04535
N 0.986532 7.64548 6.42201
N -1.18371 7.91089 6.3555
C 0.528552 7.26228 5.22798
C -0.775446 7.44037 5.20352
H -0.0469388 8.51004 7.86831
H -1.32114 7.18407 4.56593
H 1.04355 6.96526 4.55046
C -0.121918 7.80587 16.625
N 0.981235 7.38871 15.9262
N -1.19284 7.92478 15.8696
C 0.492079 7.23088 14.62
C -0.823629 7.52086 14.635
H -0.158296 7.98104 17.4809
C -1.53883 7.35983 13.5348
C 1.01299 6.79326 13.4479
C -0.988337 7.04116 12.3726
C 0.296391 6.70177 12.3115
H -2.3968 7.50891 13.6779
H 1.97283 6.63109 13.4242
H -1.43368 7.29406 11.6131
H 0.576998 6.09248 11.7493
C 11.3863 11.3056 1.83995
N 10.3657 11.9288 1.34098
N 12.4869 12.0448 1.66628
C 10.8487 13.0035 0.642518
C 12.1353 13.0433 0.85352
H 11.3954 10.562 2.31548
H 12.6482 13.7235 0.59886
H 10.4132 13.5222 0.160586
C 11.3332 11.1497 11.2953
N 10.2314 11.8786 11.0663
N 12.4103 11.8622 10.9925
C 10.579 13.0488 10.556
C 11.9306 13.0233 10.4621
H 11.4701 10.3122 11.6691
C 12.5523 14.0154 9.84071
C 9.88657 14.1142 10.1372
C 11.8572 15.0886 9.45374
C 10.5315 15.1085 9.5036
H 13.3285 13.9359 9.64938
H 9.22738 14.3037 10.5393
H 12.2689 15.6832 8.99758
H 10.1086 15.5166 8.82425
C 4.39606 15.6078 7.21554
N 3.76881 16.5239 6.36543
N 5.15756 14.7822 6.51999
C 4.17925 16.2436 5.196
C 5.05005 15.251 5.25536
H 4.33145 15.6311 8.15004
C 5.53262 14.7766 4.12567
C 3.86007 16.8341 4.09462
C 5.35992 15.5112 3.00556
C 4.5801 16.5542 3.03704
H 5.58232 13.9003 4.06177
H 3.07785 17.4563 4.05649
H 5.41939 15.0363 2.18345
H 4.751 17.149 2.48183
C 4.63732 15.7587 16.6569
N 4.19542 16.8005 15.8909
N 5.32806 14.9277 15.8792
C 4.66325 16.5828 14.6294
C 5.34271 15.4126 14.629
H 4.44829 15.641 17.5469
H 5.67906 15.0292 13.9548
H 4.43693 17.0602 13.8995
C -4.078 15.2527 6.35131
N -5.25509 14.67 6.25921
N -4.13845 16.6067 6.1199
C -6.10344 15.6676 5.96722
C -5.44542 16.8083 5.93634
C -2.79919 14.4416 6.56154
H -5.8356 17.5612 5.72305
H -6.93124 15.5436 5.71687
H -2.94602 13.7289 7.33267
H -2.61955 13.947 5.73773
H -2.02665 14.9876 6.80768
C -4.11737 15.2867 16.2719
N -5.11336 14.651 15.7503
N -4.28686 16.621 16.0459
C -5.99567 15.5396 15.2733
C -5.51669 16.7642 15.4967
H -3.36728 14.9114 16.6556
C -6.18551 17.8425 14.9761
C -7.08897 15.4231 14.4936
C -7.24269 17.6696 14.1797
C -7.69845 16.4753 13.9451
H -6.10212 18.754 15.4851
H -7.54449 14.57 14.4549
H -7.70278 18.3252 13.8979
H -8.22265 16.274 13.3109
C 15.5712 3.98612 2.52795
N 16.4101 4.76142 1.83032
N 15.4889 2.78519 1.87709
C 16.9172 4.03428 0.81792
C 16.3457 2.77799 0.800791
H 15.0171 4.25102 3.21827
H 16.4826 2.10747 0.26641
H 17.5788 4.34689 0.238043
C 15.8996 3.82669 11.6305
N 16.5033 4.77045 10.8731
N 15.4253 2.87783 10.8611
C 16.4661 4.35274 9.61687
C 15.7699 3.17 9.61338
H 15.7702 3.8961 12.5509
H 15.4996 2.76733 8.89367
H 16.7978 4.77611 8.91468
C 7.19461 4.13544 1.99048
N 7.16463 2.82058 1.7745
N 6.0367 4.73119 1.79181
C 5.87236 2.61505 1.40696
C 5.21674 3.77047 1.47253
H 7.96029 4.56475 2.27475
C 3.97778 3.82201 1.0986
C 5.2245 1.5078 1.01785
C 3.28679 2.75951 0.653793
C 3.95079 1.5993 0.631336
H 3.60898 4.6154 1.07516
H 5.62127 0.720462 0.900391
H 2.45256 2.85108 0.273974
H 3.47928 0.850224 0.613729
C 7.45078 4.22917 10.9842
N 7.39577 2.90071 10.7401
N 6.32069 4.84219 10.7748
C 6.11106 2.69472 10.329
C 5.46829 3.84083 10.3574
C 8.6655 5.02519 11.461
H 4.68249 3.90595 10.1616
H 5.7499 1.93323 10.0531
H 8.55159 5.19921 12.5083
H 9.51567 4.57752 11.276
H 8.69614 5.93057 11.0682
C -3.84361 10.7517 7.56841
N -4.30396 11.7335 6.76775
N -2.91015 9.9649 6.90993
C -3.53875 11.6466 5.61541
C -2.71458 10.6161 5.70619
H -4.22315 10.5637 8.39138
H -2.25795 10.3104 5.07497
H -3.5864 12.1667 4.88108
C -3.85473 10.7946 16.9336
N -3.95234 12.0033 16.3879
N -2.88015 10.0569 16.3798
C -2.92368 12.0841 15.4511
C -2.26099 10.9269 15.4917
H -4.36781 10.3762 17.5851
H -1.54857 10.7881 14.9272
H -2.78696 12.7714 14.9845
C 15.2761 8.86973 1.86235
N 15.3022 7.58265 2.32785
N 14.2012 9.51793 2.29051
C 14.0875 7.43084 3.01875
C 13.4321 8.59275 2.94347
H 15.8863 9.23039 1.33199
H 12.6336 8.78803 3.25622
H 13.8349 6.62821 3.37941
C 15.4334 8.80916 10.8975
N 15.4789 7.45705 11.1308
N 14.4388 9.36245 11.5815
C 14.3007 7.19888 11.7443
C 13.688 8.33753 12.072
H 16.1388 9.26499 10.5189
H 12.9701 8.40427 12.4913
H 14.0678 6.41564 11.9646
C 3.79868 10.7291 7.55865
N 2.83098 9.9741 6.88554
N 3.9832 11.9163 6.96717
C 2.42454 10.7921 5.86236
C 3.09601 11.9376 5.91916
C 4.573 10.3099 8.76137
H 3.00994 12.6331 5.39698
H 1.83733 10.589 5.24356
H 4.05141 9.65033 9.26426
H 5.39579 9.85472 8.46812
H 4.73806 11.0462 9.35228
C 3.55126 10.9222 16.818
N 2.75744 10.0588 16.0798
N 4.02236 11.9119 16.0424
C 2.74507 10.6091 14.836
C 3.53106 11.696 14.86
H 3.72955 10.8192 17.7194
C 3.77792 12.4194 13.7437
C 2.14105 10.2673 13.703
C 3.21748 12.0437 12.5685
C 2.43295 10.8964 12.576
H 4.13834 13.172 13.7506
H 1.4296 9.82819 13.8244
H 3.17058 12.592 11.891
H 1.97909 10.6949 11.8363
C 0.0297342 17.5793 6.19992
N 1.18475 17.2824 6.8269
N -1.05831 17.3215 6.99138
C 0.848503 16.5591 7.90051
C -0.460436 16.5522 8.04802
C -0.0420287 18.5046 4.98265
H -0.886985 16.1776 8.74524
H 1.46166 16.1907 8.45555
H -0.186626 19.4484 5.35
H 0.775299 18.498 4.47808
H -0.82834 18.2513 4.41193
C -0.0117036 17.8552 16.7955
N 1.0775 17.1646 16.51
N -1.08656 17.2457 16.2947
C 0.675213 16.0505 15.8903
C -0.644946 16.1198 15.6709
H -0.0541887 18.6522 17.3005
C -1.23346 15.236 14.8784
C 1.35244 15.0078 15.3966
C -0.466642 14.2911 14.2879
C 0.814058 14.228 14.5429
H -1.98354 15.3803 14.6073
H 2.11271 14.8213 15.7396
H -0.742751 13.9164 13.5809
H 1.22202 13.5044 14.3884
C 11.3138 2.20179 2.89295
N 10.1792 2.62128 2.28882
N 12.4031 2.63021 2.27235
C 10.6291 3.46838 1.31071
C 11.9626 3.41527 1.25436
H 11.2949 1.67176 3.59688
C 12.6252 4.22715 0.456495
C 9.95365 4.27489 0.459019
C 11.9763 5.10291 18.4639
C 10.6357 5.14938 18.4934
H 13.4369 4.32299 0.538558
H 9.25671 4.03925 0.136947
H 12.3384 5.3813 17.7816
H 10.2079 5.61093 17.8789
C 11.3858 1.87932 11.8822
N 10.3047 2.10509 11.1609
N 12.4804 2.36253 11.2466
C 10.699 2.68179 9.99243
C 12.0146 2.87075 10.0667
H 11.4533 1.46398 12.7072
H 12.4922 3.18223 9.39817
H 10.2005 2.92016 9.32767
C 7.18366 8.92079 1.87353
N 8.37755 9.4457 2.04697
N 7.14201 7.67028 2.32665
C 9.11412 8.53324 2.67553
C 8.35692 7.45861 2.8131
H 6.45675 9.34647 1.53949
H 8.59458 6.71616 3.1162
H 9.93994 8.6453 2.96
C 7.50051 8.92821 11.3091
N 8.44399 9.66905 11.8709
N 7.36887 7.76362 11.9011
C 8.95243 8.94301 12.8779
C 8.27806 7.79705 12.9457
H 7.0176 9.15507 10.5468
H 8.34205 7.1705 13.5551
H 9.60952 9.20399 13.3941
537
Atoms. Timestep: 200
Zn -2.87433 8.01524 7.11438
Zn -3.13331 7.85596 16.555
Zn 13.9837 11.4876 2.46367
Zn 13.9452 11.3147 11.6247
Zn 5.78677 13.0622 6.85052
Zn 5.55191 13.1157 16.5474
Zn -3.02141 18.0291 7.03886
Zn -2.93031 17.8561 16.3372
Zn 14.2708 1.61387 2.48235
Zn 14.13 1.61395 11.7519
Zn 5.74859 6.52906 2.42797
Zn 5.77662 6.53597 11.6387
Zn 8.7002 11.4179 2.13924
Zn 8.55202 11.5818 11.8576
Zn 16.9439 6.56087 2.53358
Zn 17.0474 6.44506 11.501
Zn 8.51654 1.7568 2.31102
Zn 8.35638 1.38268 11.5224
Zn 2.88362 17.9985 7.01309
Zn 2.99758 18.0782 16.374
Zn -5.7483 13.1234 6.99358
Zn -5.66416 12.833 16.5002
Zn 2.69804 8.01333 6.95753
Zn 2.66982 8.0673 16.3028
C 17.5462 7.15494 5.30617
N 17.4406 6.24611 4.35439
N 18.4282 6.76234 6.2429
C 18.2467 5.20663 4.66418
C 18.8267 5.50781 5.85018
C 16.8888 8.53897 5.27693
H 19.5536 4.98216 6.24272
H 18.4185 4.46836 4.10962
H 17.1692 9.04395 4.52639
H 15.9877 8.43828 5.29634
H 17.1763 9.02627 5.99933
C 17.6511 7.29049 14.3287
N 17.3512 6.27991 13.4646
N 18.3485 6.85999 15.3414
C 17.8333 5.12489 14.1029
C 18.3629 5.50786 15.2571
C 17.0614 8.67215 14.214
H 18.7484 4.93518 15.9123
H 17.8222 4.25482 13.824
H 16.6889 8.78974 13.2946
H 16.4088 8.79134 14.8829
H -4.83431 9.28815 14.3292
C -6.53014 12.072 0.426351
N -6.15418 13.0627 18.3955
N 15.4569 12.5203 1.52333
C -6.59217 14.2004 0.243801
C -7.19945 13.8486 1.40679
H -6.29765 11.1127 0.255087
H -7.53006 14.4505 2.06103
H -6.51178 15.0591 18.7108
C 15.4079 12.186 9.25853
N -6.53015 13.1859 8.75203
N 15.2463 12.2828 10.5304
C -6.27204 13.984 9.7955
C -6.8121 13.4915 10.8974
H 15.1562 11.3727 8.71572
H -6.73105 13.8456 11.7448
H -5.78105 14.7695 9.77456
C 7.77596 11.7052 4.93882
N 8.67232 12.0551 3.97213
N 7.54306 12.7109 5.80608
C 9.1348 13.3041 4.31723
C 8.46251 13.7131 5.44237
C 7.00859 10.3371 4.894
H 8.56821 14.4884 5.88231
H 9.83893 13.7872 3.82614